ITEM: TIMESTEP
47700
ITEM: NUMBER OF ATOMS
3594
ITEM: BOX BOUNDS pp pp pp
-7.1931403837813681e+00 7.1931403837813681e+00
-7.1931403837813681e+00 7.1931403837813681e+00
-7.1931403837813681e+00 7.1931403837813681e+00
ITEM: ATOMS id type x y z 
1399 1 -6.80684 -5.27459 -6.03141 
239 1 -5.66237 7.02283 -6.99024 
1410 1 -6.67817 -6.26773 -6.17113 
335 1 -5.97367 -6.75734 -6.49576 
3477 2 -4.90908 -6.6875 -6.0383 
2018 1 -4.24639 -6.08417 -7.04228 
2248 1 -3.99846 -6.21547 -6.11594 
2944 2 -2.81753 -6.98472 -6.86551 
3574 2 -2.8733 -6.035 -6.67538 
1893 1 -1.47717 -7.10142 -6.48864 
2083 1 -0.790365 -6.48673 -6.13461 
1308 1 -1.72031 -6.04508 -5.93507 
2630 1 -1.57941 -6.22014 -6.8281 
533 1 0.194782 -5.83088 -6.37337 
1385 1 0.063766 -6.63674 -6.33563 
1323 1 0.458735 -7.11124 -6.9363 
2246 1 1.93323 -6.01137 -6.71499 
774 1 1.92465 -5.57332 -5.89382 
2492 1 0.551338 -5.96601 7.10625 
1425 1 1.95669 -6.51681 -6.12744 
3442 2 3.00096 -6.34746 -6.33033 
748 1 1.79162 -6.94699 -7.00211 
3587 2 3.25419 -7.10362 -6.56468 
932 1 4.0485 -6.84743 -5.84692 
1970 1 4.33278 -7.09098 -6.73879 
589 1 4.31312 -6.10131 -6.41445 
3208 2 5.21885 -6.3443 -6.95935 
2787 2 5.41548 -7.04073 -6.88396 
13 1 6.03031 -6.15758 -6.1473 
2200 1 6.33921 -5.84822 -7.13406 
572 1 6.84534 -4.75277 -6.15508 
1654 1 -6.33888 -4.55524 -6.50026 
3029 2 -7.03267 -5.07409 6.93416 
2546 1 -5.62526 -6.21927 7.19148 
1473 1 -6.15637 -5.77691 -6.43619 
937 1 -5.65146 -5.06363 -7.03492 
2702 1 -4.37673 -4.37681 -5.85086 
2301 1 -4.41561 -4.72244 -6.68768 
1020 1 -4.92469 -5.61447 -6.77246 
3061 2 -3.40001 -4.422 -6.09523 
2981 2 -3.01761 -5.29908 -6.25216 
2397 1 -3.05538 -4.6278 -7.15363 
1730 1 -1.94227 -5.19614 -6.68158 
3484 2 -0.926006 -4.94957 -6.81953 
842 1 -2.30804 -4.95417 -5.556 
1122 1 0.764702 -4.85715 -6.535 
1587 1 1.1953 -5.58589 -6.67591 
2628 1 2.58432 -5.89351 6.65465 
313 1 2.61965 -6.58412 7.03591 
1836 1 2.635 -4.56532 7.05934 
2957 2 3.17036 -5.61278 -6.03652 
26 1 3.39242 -4.66668 -6.93319 
893 1 4.00953 -5.38032 -6.6861 
2256 1 4.14041 -4.83014 7.10053 
2812 2 5.29415 -5.47153 -6.74809 
3212 2 4.95861 -4.89429 -6.53614 
1345 1 6.83721 -5.68352 -6.43301 
2727 1 -6.83454 -4.25305 -5.71605 
639 1 6.11547 -4.8723 -7.06177 
1273 1 5.95424 -5.21084 -5.9201 
1918 1 5.97635 -3.91802 -6.9242 
2975 2 7.12574 -4.21254 -6.98358 
2015 1 -6.63769 -3.45067 -5.89881 
1483 1 -5.95226 -3.66984 -6.6412 
1794 1 -6.1784 -4.17514 6.82297 
1640 1 -5.2607 -4.2883 -6.68685 
1835 1 -4.63834 -3.70231 -6.43034 
2516 1 -4.50515 -4.12379 -4.96098 
3041 2 -3.54416 -3.50615 -6.1909 
139 1 -4.08297 -3.91129 -6.96126 
2869 2 -3.42968 -2.94677 -5.75205 
1822 1 -2.16525 -4.52115 7.00684 
890 1 -2.16319 -4.37361 -6.50931 
2057 1 -3.06474 -3.69027 -7.19218 
1629 1 -2.34752 -3.6145 -6.18026 
2808 2 -1.18359 -4.18982 -6.81125 
3332 2 -1.17748 -3.40578 -6.58744 
607 1 -0.988287 -3.62662 -5.15079 
1347 1 -0.261641 -3.30843 -7.04366 
1313 1 -0.325421 -3.97018 -5.92958 
1859 1 0.286219 -3.24655 -6.27362 
1644 1 1.07666 -3.10604 -5.73488 
2520 1 0.700473 -4.04022 -6.08698 
1997 1 2.10008 -3.88999 -6.76121 
779 1 2.28422 -5.16878 -6.75328 
1648 1 3.0535 -3.81407 -6.75413 
2431 1 3.94153 -4.02207 -7.00429 
1527 1 3.54622 -3.09737 -6.01592 
2539 1 3.81443 -4.44645 -6.21849 
3266 2 4.95503 -4.12945 -6.44809 
2767 2 4.95146 -3.31084 -6.30581 
3126 2 -7.05321 -3.32202 -6.90104 
1029 1 5.2758 -2.71448 7.13802 
1597 1 6.11707 -2.97538 -6.89275 
2360 1 -5.80157 -2.77675 -6.60163 
519 1 -6.13196 -3.17514 7.00737 
90 1 -5.09202 -3.0107 -6.33288 
18 1 -4.35152 -1.87317 -6.48536 
2381 1 -4.30736 -2.77814 -6.60917 
911 1 -2.97343 -2.84933 -7.17011 
743 1 -2.56312 -2.68557 -6.33654 
1928 1 -2.71978 -1.88937 -6.92339 
520 1 -1.82771 -3.33887 -5.55141 
2070 1 -2.10752 -2.47935 7.02844 
3234 2 -1.49071 -2.60962 -6.54541 
3105 2 -1.449 -1.72834 -6.32312 
1489 1 -0.64016 -2.19203 -7.05102 
2511 1 -0.856198 -2.24175 -5.19546 
541 1 -0.454741 -2.95119 -5.75355 
2804 2 0.945814 -2.20313 -6.88628 
3347 2 0.943986 -3.03825 -7.18712 
2050 1 2.6887 -2.19295 -6.58677 
190 1 3.03052 -2.9483 -6.66346 
1897 1 2.19375 -2.93268 -6.6514 
675 1 4.46091 -1.29662 -7.06432 
3550 2 4.70304 -2.50555 -6.06141 
2415 1 5.83556 -2.28946 -6.45665 
3087 2 7.03865 -2.47818 -6.68827 
1051 1 6.16705 -2.16691 6.9314 
923 1 -6.59858 -1.43456 -7.10882 
936 1 -5.28404 -2.05251 -6.22232 
2892 2 -5.41331 -1.02816 7.09681 
2320 1 -4.39067 -1.10283 -6.87194 
571 1 -3.4728 -2.32488 -6.77274 
2601 1 -3.47267 -1.40968 -6.75734 
323 1 -2.35163 -1.16813 -7.00578 
2699 1 -2.50276 -1.92239 -6.00678 
2013 1 -2.59966 -1.04594 -6.18208 
3200 2 -1.50054 -0.927813 -6.22297 
154 1 -0.319536 -1.53308 -6.48609 
1485 1 -0.489028 -0.577979 -6.63272 
1374 1 -0.0503794 -1.0308 6.8079 
3151 2 0.670409 -1.49697 -6.85944 
1695 1 1.81364 -1.96395 -6.16662 
1418 1 1.99224 -1.98222 7.1832 
309 1 3.82864 -1.94659 -6.94058 
1843 1 2.59833 -1.38846 -6.3561 
1981 1 3.62333 -1.17685 -6.60979 
1876 1 3.2148 -1.36618 -5.7972 
1824 1 4.26256 -0.573445 -6.77458 
453 1 5.09397 -1.95652 -7.07474 
2072 1 5.57135 -2.46117 -5.42471 
2122 1 5.83396 -0.313316 6.99451 
303 1 5.56759 -1.58083 -6.2616 
2972 2 4.58351 -1.692 -5.92388 
2231 1 5.80886 -0.791103 -5.3454 
2840 2 6.83309 -1.7458 -6.47321 
2797 2 6.59542 -0.972113 -6.39631 
2617 1 -6.89378 -0.0772041 -6.53844 
1698 1 -6.95264 0.65696 -7.0996 
37 1 6.62827 0.123878 7.03253 
3097 2 -5.66055 0.0871525 -6.92452 
3360 2 -5.61152 -0.590777 -6.75892 
1001 1 -4.18871 -0.376076 -6.52216 
408 1 -3.37146 0.414343 -6.23677 
2326 1 -3.30545 -0.500446 -6.38936 
547 1 -4.34935 -0.651988 6.81672 
1772 1 -2.78475 -0.359902 -5.4433 
2081 1 -2.56057 0.817345 -6.78598 
1255 1 -2.49504 0.02896 -6.52884 
2390 1 -1.65236 0.371041 -7.01027 
2796 2 -1.72112 -0.266337 -5.95234 
502 1 -0.816045 0.505558 -6.40524 
343 1 -1.64234 1.15594 -6.65536 
3088 2 0.661162 -0.766628 -6.70432 
3311 2 0.462732 -0.00608675 -6.60479 
1661 1 -0.691684 1.30097 -6.95988 
1708 1 1.43376 -1.11687 -5.97133 
2712 1 1.54173 0.0277939 -6.98948 
308 1 2.33853 -0.632235 -6.20378 
2960 2 2.54111 0.116993 -7.11041 
867 1 1.80273 0.205631 -6.31007 
2730 1 3.39119 0.153403 -6.42804 
1218 1 3.22942 -0.559453 -6.28281 
2418 1 4.91304 -0.0212544 -6.74026 
312 1 5.60205 0.464696 -7.021 
3135 2 6.2928 -0.199468 -6.23876 
3038 2 6.64565 0.470125 -6.1098 
3007 2 -5.90287 1.69507 -6.46872 
2037 1 -7.09842 1.93331 -6.06374 
2318 1 -4.16223 0.596582 -6.35115 
3127 2 -5.84941 0.858865 -6.67234 
305 1 -5.31943 1.46239 -5.54377 
1154 1 -4.82306 1.19978 -6.82727 
1232 1 -4.04446 1.44285 -5.92616 
1525 1 -1.50192 2.37627 -6.24559 
2275 1 -3.11715 1.33604 -6.37891 
1057 1 -1.0872 2.23408 -5.38773 
1971 1 -0.918731 2.13736 -6.76409 
994 1 -1.03516 1.36092 -6.02158 
2928 2 0.337314 0.704071 -6.41617 
3078 2 0.0875652 1.51642 -6.20442 
497 1 1.07537 1.5175 -5.40792 
855 1 1.02374 1.85952 -6.423 
3459 2 2.61753 0.872765 -7.08209 
805 1 3.36693 0.909233 -6.12899 
795 1 4.20497 0.645879 -6.67349 
591 1 4.61094 1.37869 -6.27289 
199 1 5.0575 0.713053 -6.41793 
478 1 6.11558 1.64144 -7.06535 
2066 1 5.49912 1.3404 -6.67771 
817 1 7.154 2.32427 -6.86853 
3060 2 6.3733 1.2095 -5.96313 
2386 1 7.13106 1.51951 -6.89678 
3414 2 6.16073 2.03227 -5.93021 
718 1 -6.91286 1.03362 -5.96783 
3140 2 -6.10086 2.45174 -6.30226 
3465 2 -6.38846 3.16976 -6.22154 
1288 1 -4.69477 1.86123 -6.16369 
1691 1 -4.96326 3.14906 -5.82748 
565 1 -4.18431 2.63246 -5.78953 
3093 2 -3.93204 2.48313 -6.92357 
1265 1 -2.25412 1.83161 -6.77955 
2694 1 -2.88098 3.15812 -7.07834 
686 1 -2.82257 2.37849 -6.40395 
2042 1 -2.10152 2.93193 -6.43941 
287 1 -0.956825 3.08258 -6.4729 
1053 1 -1.12082 3.15784 -5.60161 
3444 2 -0.0848803 2.26907 -5.9472 
2813 2 -0.0314187 3.09156 -5.83 
1773 1 0.832719 2.8084 -6.83966 
1848 1 1.30526 2.48816 -5.96235 
725 1 1.1346 3.59962 7.08518 
3393 2 2.25611 1.58269 -6.89461 
3417 2 2.16018 2.49248 -6.72519 
2261 1 3.01645 3.24152 -5.73906 
171 1 3.8505 1.80584 -6.33781 
1677 1 4.71383 2.31775 -6.0065 
2530 1 3.55573 2.70792 -6.13297 
1516 1 3.18366 3.36582 -6.73596 
1414 1 5.33671 2.12508 -6.56337 
2338 1 5.42298 3.08156 7.14308 
2724 1 6.8743 3.13207 -6.68325 
2061 1 6.05344 2.49335 -6.9005 
1185 1 6.89392 2.84212 -5.91823 
625 1 -6.59582 2.62461 7.03894 
2736 2 -6.49049 4.01625 -6.11136 
2594 1 -5.67498 4.45309 -6.80079 
3238 2 -6.67283 4.72409 -5.99319 
964 1 -5.39059 3.56426 -6.38436 
2783 2 -4.09133 3.34135 -6.83542 
3408 2 -4.32818 4.01211 -6.55957 
1512 1 -3.54306 4.69064 -5.7564 
341 1 -2.80741 4.59803 -6.46329 
966 1 -3.45196 4.76356 -6.96623 
2229 1 -3.35156 3.90331 -6.15147 
1098 1 -2.55863 3.7893 -6.57882 
673 1 -1.61958 3.63753 -6.1834 
2524 1 -2.0376 4.40826 -6.02322 
2839 2 -2.00596 4.42756 7.16722 
3378 2 -0.271662 3.86511 -5.83449 
2675 1 0.869969 4.63691 -7.09442 
2271 1 0.19203 3.48384 -6.998 
1932 1 0.890918 3.28893 -6.17935 
1639 1 1.02536 4.20381 -5.78692 
3466 2 1.82213 3.88377 -6.61029 
3478 2 2.21079 3.20891 -6.42461 
105 1 1.58179 4.1127 6.63732 
1978 1 3.01379 4.21419 -6.87176 
1068 1 2.85564 4.90779 -6.39373 
3551 2 4.25847 3.98471 -7.13527 
2765 2 4.20024 3.23367 7.1333 
2142 1 5.03777 3.17571 -6.48139 
1965 1 4.77937 4.09831 -6.16481 
339 1 5.36092 4.47479 -6.66085 
2597 1 5.91212 3.6103 -6.63254 
2327 1 6.91602 4.13626 -6.92395 
34 1 6.76141 3.81717 -5.91546 
1727 1 -6.16137 5.01608 -7.0841 
3045 2 -6.58509 5.42015 -5.79877 
896 1 -5.2404 5.22668 7.14483 
754 1 -5.45224 4.82988 -6.087 
3471 2 -4.50838 5.50109 -6.53245 
2440 1 -5.67669 5.60978 -6.22633 
3411 2 -4.3426 4.79094 -6.54713 
1481 1 -3.5774 5.59428 7.04357 
1344 1 -2.5309 5.27335 -5.91626 
3454 2 -2.61622 5.94222 -6.99981 
1370 1 -1.99528 5.93793 -5.9048 
225 1 -1.53861 5.18459 -6.30054 
1663 1 0.462013 4.07509 -6.52157 
1767 1 0.745419 5.0324 -6.07657 
215 1 -0.294933 4.70698 -6.92504 
3138 2 1.82125 4.64551 -6.39886 
282 1 0.211409 5.41041 -6.64777 
693 1 2.88885 3.74471 6.85001 
703 1 2.7164 5.78353 -6.44406 
3223 2 3.9157 4.70669 -6.92876 
3215 2 3.87259 5.45319 -6.85986 
1616 1 6.27112 4.49984 -6.33748 
1871 1 5.82695 5.3685 -6.29188 
865 1 4.7345 4.98838 -6.10494 
2701 1 6.94364 4.94788 -6.72273 
1341 1 6.5594 5.62679 -6.30031 
862 1 -6.80677 5.58061 -6.91804 
1117 1 -6.75513 -6.98474 -6.33959 
317 1 -6.5391 6.54903 -6.85211 
3150 2 -4.91437 6.86432 -6.24141 
3463 2 -4.65715 6.20431 -6.44242 
2706 1 -5.8477 6.01131 -6.97332 
2446 1 -3.72893 6.47702 -7.0823 
601 1 -3.3573 6.55969 6.56219 
197 1 -2.95424 -7.17527 -5.77027 
3268 2 -2.5811 6.72154 -6.95863 
1747 1 -0.894162 5.30857 -7.0326 
1984 1 -1.51342 6.38763 -6.47856 
1093 1 -0.69855 6.93682 -6.46662 
1643 1 -0.509668 5.85262 -6.60972 
1850 1 0.4038 6.3835 -6.60692 
2831 2 1.73582 5.57187 -6.0493 
2899 2 1.52002 6.20579 -5.94481 
255 1 2.04793 6.4555 -7.17871 
2627 1 1.02406 -6.43768 -6.84254 
849 1 2.34265 6.82433 -6.52308 
2048 1 2.76047 6.63336 -5.74739 
2790 2 3.91153 5.92513 -6.26083 
3569 2 3.57787 6.49967 -6.61398 
1681 1 5.06271 6.01149 -6.83727 
452 1 5.55054 6.33746 -6.14576 
924 1 4.77704 6.82474 -6.20262 
2678 1 4.56584 6.5502 7.03472 
829 1 6.45724 6.54442 -6.38572 
760 1 6.81702 -6.76811 -6.61555 
1263 1 -6.03525 -6.99704 -5.62253 
2747 2 6.98351 -6.87136 -5.48497 
695 1 -6.24485 -6.11193 -5.31713 
3520 2 -5.2276 -5.99901 -5.76779 
1291 1 -5.59298 -6.70216 -4.90181 
2533 1 -6.40161 -6.92055 -4.61102 
392 1 -3.8307 -7.08706 -6.26008 
1149 1 -4.06304 -6.64903 -5.23211 
472 1 -4.21151 -5.34518 -6.10807 
2002 1 -3.20266 -6.40925 -5.62399 
2439 1 -2.3194 -5.93195 -4.35179 
1979 1 -2.18156 -6.80627 -4.9417 
1435 1 -2.18392 -6.76571 -5.8436 
3322 2 -1.47544 -5.71458 -4.81847 
3594 2 -1.19162 -6.67072 -5.07617 
2626 1 -0.74688 -5.64853 -5.96864 
245 1 -0.0763712 -6.19112 -5.21116 
1422 1 -0.270396 -6.5541 -4.38558 
3128 2 0.989335 -6.68079 -5.68863 
2491 1 1.84014 -6.82684 -4.80571 
2978 2 1.25017 7.014 -5.91943 
1416 1 2.83934 -6.58849 -5.29384 
1896 1 3.61273 -6.12703 -5.06138 
2469 1 3.62554 -5.88676 -4.20369 
522 1 5.7022 -7.1829 -5.72842 
916 1 5.00873 -6.61363 -5.84169 
2825 2 4.66247 -5.91669 -4.55988 
1985 1 5.9076 -6.57579 -5.10455 
3487 2 6.92392 -6.06324 -5.29034 
610 1 6.23573 -6.92452 -6.20907 
2137 1 -6.45698 -5.20574 -5.27071 
2721 1 -6.51951 -4.20503 -4.76795 
3416 2 -5.47918 -5.23141 -5.80212 
3325 2 -5.63625 -4.50958 -5.71212 
642 1 -4.95274 -4.81274 -4.59409 
683 1 -6.21236 -5.47743 -4.57166 
959 1 -4.30819 -5.08158 -5.30077 
2674 1 -4.41106 -5.89708 -5.0721 
833 1 -3.62867 -5.55904 -5.39295 
2549 1 -2.62805 -6.01547 -5.22787 
2262 1 -2.73413 -5.1847 -4.90607 
2176 1 -2.66726 -5.05568 -3.92737 
897 1 -1.34161 -5.10027 -5.90315 
3480 2 -1.55417 -5.01629 -4.78765 
2052 1 -0.541957 -4.49798 -5.27309 
786 1 -0.209954 -4.84001 -6.04485 
1050 1 -0.364618 -5.32063 -5.2237 
1931 1 -0.685669 -4.77055 -4.35777 
1442 1 1.57252 -4.71538 -6.09447 
2826 2 0.859645 -5.85477 -5.56118 
3068 2 0.688677 -4.99102 -5.35839 
1234 1 2.09559 -6.02033 -5.19372 
1575 1 2.90131 -5.68905 -4.99777 
984 1 1.83146 -5.01529 -5.04222 
1415 1 2.55435 -4.8007 -4.6958 
1160 1 3.7984 -3.86576 -5.24095 
1019 1 4.15032 -5.68395 -5.5122 
1211 1 4.06148 -4.86097 -5.60049 
98 1 4.89154 -5.73768 -5.82678 
1322 1 4.89323 -4.78479 -5.486 
2659 1 5.90329 -5.74688 -4.59821 
451 1 5.50406 -5.58432 -5.32902 
2828 2 6.67606 -5.2195 -5.04596 
3010 2 6.64253 -4.37386 -4.96085 
2612 1 -6.09398 -2.7523 -4.18251 
2912 2 -5.47888 -3.75063 -5.49213 
1361 1 -5.01678 -3.79691 -4.21103 
88 1 -3.68037 -3.91289 -5.01793 
1140 1 -4.47278 -3.14339 -5.6374 
913 1 -2.64985 -3.92962 -5.42602 
484 1 -2.818 -3.28784 -4.88314 
922 1 -1.56715 -4.23516 -5.68358 
2058 1 -0.456443 -3.89017 -4.43929 
2631 1 -1.46914 -2.60277 -5.50023 
2768 2 0.588864 -4.11071 -5.13944 
840 1 1.68768 -4.24677 -5.15621 
566 1 1.49204 -3.84481 -5.94034 
2933 2 2.7931 -4.91345 -5.93576 
3249 2 2.72673 -4.00843 -5.72044 
1945 1 3.40012 -3.20986 -4.84619 
1372 1 4.01315 -3.69862 -6.0598 
153 1 5.98669 -4.34314 -6.04676 
1364 1 4.66141 -3.9902 -5.4384 
2306 1 5.55223 -4.14758 -5.36335 
346 1 6.07365 -3.02879 -6.03006 
3080 2 6.57514 -3.67675 -4.84503 
1373 1 6.39534 -3.67419 -5.90669 
148 1 -6.38975 -2.63037 -6.00385 
92 1 -6.7869 -3.1013 -4.86045 
1672 1 -6.77378 -1.63456 -5.86793 
2890 2 -5.54124 -2.2806 -5.19278 
2737 2 -5.6981 -2.98281 -5.35219 
2661 1 -4.40366 -2.37988 -4.85657 
1445 1 -4.60031 -2.33406 -5.91839 
2844 2 -3.59169 -2.0484 -5.57973 
1087 1 -3.7881 -3.05733 -4.69505 
2605 1 -4.08999 -1.68106 -4.40759 
523 1 -2.9527 -3.33837 -4.14301 
965 1 -3.25915 -2.34597 -4.52339 
667 1 -1.08032 -1.00054 -4.12396 
1112 1 -2.49568 -2.6757 -5.28573 
527 1 -0.741441 -2.80494 -4.48119 
3227 2 0.457859 -3.26744 -5.04244 
3430 2 0.270487 -2.49044 -4.72094 
2600 1 1.58424 -2.75377 -6.23275 
400 1 1.55914 -3.40283 -5.00889 
2298 1 0.773225 -2.19724 -5.88021 
3014 2 2.4681 -3.2842 -5.56802 
2830 2 2.50374 -2.49463 -5.31851 
847 1 3.46665 -2.12431 -6.23826 
873 1 3.3959 -2.39949 -4.51598 
2645 1 3.61012 -1.18814 -4.9786 
1841 1 3.96319 -2.72031 -5.36328 
1911 1 3.42615 -2.08807 -5.36198 
2101 1 5.58335 -3.22724 -5.27415 
499 1 4.52501 -3.21038 -5.06278 
2126 1 7.06481 -2.99285 -5.68144 
2021 1 6.44943 -2.41184 -5.57318 
41 1 -6.04336 -1.60905 -6.38061 
2993 2 -6.22787 -1.00191 -4.90985 
2560 1 -5.77287 -1.1267 -5.9116 
874 1 -4.85108 -1.19513 -6.06658 
2974 2 -6.01889 -1.67819 -4.91796 
3543 2 -3.66296 -1.38769 -5.70905 
3256 2 -3.87963 -0.842243 -5.25241 
1064 1 -1.89659 -1.76843 -5.33982 
159 1 -3.11362 -0.932144 -4.65687 
2139 1 -0.918713 -1.41067 -5.12252 
2465 1 -1.57571 -1.03492 -4.97654 
2609 1 -0.462542 -0.822422 -5.79175 
460 1 -0.330603 -1.92381 -5.75327 
3354 2 0.316565 -1.77131 -4.57157 
1562 1 0.36516 -1.45192 -5.72856 
2187 1 0.068197 -2.48053 -6.55704 
2673 1 1.14248 -1.64755 -5.36321 
2411 1 1.33873 -2.39257 -5.16211 
76 1 3.28252 -0.562506 -4.48658 
3356 2 2.30428 -1.71048 -5.13444 
3557 2 2.31431 -0.912462 -5.31637 
40 1 3.15895 -0.501541 -5.42961 
296 1 4.27935 -2.04489 -4.78645 
2995 2 4.3811 -1.02574 -5.8089 
304 1 5.79816 -1.66595 -5.50042 
1326 1 -7.06968 -1.63565 -4.68898 
802 1 7.13295 -0.816179 -4.44541 
2311 1 6.95364 -1.21805 -5.38969 
1883 1 -6.65771 -0.90099 -6.43148 
1224 1 -5.79297 -0.225979 -5.74081 
1369 1 -6.85814 -0.527569 -5.72374 
1781 1 -4.91508 -0.364164 -6.06911 
477 1 -5.06145 -0.789354 -5.23567 
1353 1 -4.90562 0.804021 -5.86235 
3144 2 -4.20272 -0.112432 -5.3475 
174 1 -2.18683 -0.152305 -4.81408 
1635 1 -2.46133 -1.15496 -5.30531 
1623 1 -3.09075 0.0402495 -4.69337 
2939 2 -2.06323 0.544202 -5.71263 
605 1 -1.38952 -0.200082 -4.37735 
603 1 -1.01263 -0.319637 -5.21975 
2589 1 -0.246514 -0.0737265 -5.69275 
295 1 0.412943 -0.571382 -5.42775 
2080 1 1.22299 -0.285628 -5.7223 
75 1 1.23462 -0.793666 -4.73202 
892 1 0.943399 -0.223274 -4.17834 
3449 2 1.95633 0.0210651 -4.90879 
2150 1 3.01131 0.198829 -5.07758 
388 1 4.03752 -0.244428 -4.42025 
3317 2 4.2252 -0.185558 -5.72991 
2848 2 4.05959 0.511925 -5.49917 
1362 1 5.32867 -0.568969 -6.11851 
504 1 5.21379 0.222827 -5.78971 
130 1 5.06448 -1.52711 -4.89219 
1340 1 5.93618 0.188375 -5.21534 
1548 1 6.68488 -0.382812 -4.93092 
556 1 6.54705 0.700025 -4.76046 
668 1 -7.05419 1.20806 -5.09695 
1446 1 -6.42464 0.398346 -5.81874 
50 1 -5.81868 0.822522 -5.51416 
561 1 -5.33158 0.328755 -5.2064 
2108 1 -3.13895 0.607121 -5.44079 
2861 2 -4.19834 0.601855 -5.07375 
3062 2 -4.34731 1.40469 -4.97279 
2241 1 -3.39294 1.36223 -5.25826 
330 1 -2.62533 0.84027 -4.61295 
3117 2 -2.28301 2.00628 -5.42689 
2846 2 -2.27033 1.26586 -5.60371 
1517 1 -1.33318 1.40388 -4.94938 
14 1 -0.25936 1.64024 -5.11312 
2647 1 -0.893492 0.637997 -5.42846 
84 1 0.508313 1.02094 -4.61469 
2713 1 0.480671 1.97386 -4.70557 
324 1 -0.0745966 0.859091 -5.37859 
1998 1 1.95278 0.836488 -5.87471 
904 1 1.08752 0.664839 -5.69243 
941 1 3.00541 1.74132 -5.97355 
3383 2 1.77492 0.692851 -4.59379 
110 1 2.74093 0.371458 -5.94373 
371 1 1.94409 1.6979 -5.63163 
441 1 2.4882 1.94374 -4.92116 
1368 1 2.72396 1.10139 -5.57466 
3364 2 4.06634 1.2867 -5.30902 
3388 2 3.59781 2.01241 -5.20539 
2074 1 5.80145 1.01165 -4.883 
1574 1 5.06526 1.8123 -5.52649 
2087 1 5.42895 1.02006 -5.58227 
194 1 5.52299 2.49262 -4.56744 
1472 1 -7.16328 0.243076 -5.17281 
2276 1 6.03382 1.80878 -4.72952 
1607 1 -6.40304 1.6543 -5.39458 
1238 1 -6.41055 2.76048 -5.05447 
1336 1 -5.30354 2.39863 -5.57785 
2576 1 -5.58634 3.13405 -5.23548 
443 1 -5.45651 1.1923 -4.72614 
2396 1 -5.73645 2.02337 -4.83225 
433 1 -3.41818 2.10655 -5.85085 
2466 1 -3.1989 3.00845 -6.00362 
2845 2 -4.43278 2.18639 -4.89712 
2077 1 -4.1029 3.43837 -5.69098 
803 1 -3.29394 2.39616 -5.07574 
28 1 -3.07423 1.59149 -4.46231 
2945 2 -2.0833 2.88301 -5.244 
2977 2 -2.6078 3.57337 -5.31867 
757 1 -1.52902 3.06081 -4.42642 
823 1 -1.3247 2.12536 -4.57562 
177 1 -1.79461 3.92422 -4.63459 
1993 1 -0.307372 2.55131 -4.81439 
46 1 -0.83936 3.29563 -4.81 
1505 1 0.389447 2.9049 -4.36631 
1249 1 0.692472 3.3206 -5.07765 
1924 1 0.891567 2.43551 -5.27341 
1056 1 1.81931 2.66639 -5.24644 
301 1 1.52933 3.43156 -5.57853 
2542 1 2.54966 2.43425 -5.80389 
3433 2 3.76936 2.79213 -4.97414 
23 1 4.72418 2.93477 -5.25035 
2147 1 4.64818 2.59072 -4.40799 
709 1 4.5467 3.98158 -5.36029 
1207 1 6.77017 1.66665 -4.86711 
3298 2 5.87655 2.62489 -5.56114 
723 1 7.03544 3.28105 -5.17982 
2297 1 -6.75818 3.76789 -5.09116 
2414 1 6.93695 4.30185 -4.93419 
3456 2 -4.59176 2.98354 -4.60005 
1910 1 -5.37926 4.08732 -5.58607 
59 1 -4.57404 4.23124 -5.54209 
912 1 -3.76669 4.06466 -5.02577 
1991 1 -3.54031 3.20846 -5.18042 
1733 1 -3.28893 3.58064 -4.29133 
2865 2 -2.74063 4.38262 -5.09522 
2401 1 -1.66769 4.82827 -5.25633 
175 1 -1.38378 3.96259 -5.45793 
2208 1 -0.874016 4.35953 -4.73849 
1687 1 0.00607635 3.63913 -4.69748 
1269 1 -0.0419739 4.96621 -4.68973 
1521 1 1.803 4.20935 -5.27862 
2379 1 3.37918 4.07226 -6.01867 
899 1 2.32056 3.47927 -5.1869 
2711 1 4.26821 3.50187 -6.05219 
2814 2 3.43699 4.35217 -4.93444 
2894 2 3.6262 3.57482 -4.85787 
16 1 3.88689 4.74206 -5.69418 
2927 2 5.63249 4.13735 -5.44898 
2917 2 5.69781 3.37779 -5.60448 
2092 1 4.63761 4.74152 -4.85243 
83 1 -7.15165 2.31687 -5.12355 
2707 1 6.62852 4.6947 -5.65061 
2715 1 -5.91871 5.87692 -5.04354 
1200 1 -6.52388 4.66929 -4.77023 
131 1 -5.72113 4.8736 -5.25656 
587 1 -5.46185 6.24618 -5.57605 
2473 1 -4.95955 5.3615 -5.47192 
2342 1 -3.91545 5.84008 -5.55897 
1229 1 -4.28487 4.98822 -5.2751 
1391 1 -3.24227 5.44156 -6.35887 
297 1 -4.7015 6.16005 -5.11206 
3458 2 -2.90567 5.13381 -4.99122 
2988 2 -3.07858 5.92429 -4.94469 
2635 1 -2.15775 6.60595 -5.099 
1346 1 -3.5294 6.39165 -6.34363 
345 1 -1.87796 5.68566 -5.10612 
3207 2 -0.591119 5.29966 -5.62725 
3392 2 -0.494961 4.58957 -5.91382 
582 1 1.12969 5.79861 -5.10584 
2669 1 0.527572 4.32646 -5.16518 
2429 1 1.43358 4.87457 -5.08401 
1878 1 2.61103 4.28181 -5.70527 
15 1 2.41828 5.1407 -5.29534 
2762 2 3.42463 5.12119 -4.49599 
3531 2 3.06226 5.89204 -4.48043 
696 1 3.08582 5.37778 -5.71436 
1113 1 4.50271 5.61718 -4.5503 
1311 1 4.8383 5.99969 -5.86382 
2086 1 4.58087 6.08446 -3.7826 
459 1 4.27379 5.5152 -5.381 
1923 1 5.19354 5.20733 -4.22627 
3257 2 5.58274 5.00618 -5.38417 
2971 2 5.43207 5.95641 -4.99946 
806 1 6.57527 5.55205 -5.45225 
2317 1 6.99944 5.15015 -4.91358 
3147 2 -6.86479 6.03493 -5.82339 
3330 2 -7.04329 6.6981 -5.57889 
1184 1 -6.41629 6.57274 -4.74121 
942 1 -5.97792 6.6127 -6.17696 
29 1 -5.54745 6.84692 -5.08694 
2321 1 -4.72208 7.13803 -5.04992 
2033 1 -3.92993 6.82464 -5.52626 
2835 2 -3.14165 -7.082 -4.73199 
1881 1 -2.04226 6.80685 -5.85979 
3265 2 -3.25353 6.56385 -4.59726 
127 1 -2.26677 6.48208 -4.0602 
2603 1 -2.79256 6.4041 -5.84714 
3018 2 -0.808481 6.12894 -5.56052 
3455 2 -1.02627 6.90024 -5.21314 
1356 1 0.331166 6.08876 -5.84975 
1799 1 -0.0923606 6.99405 -5.82276 
427 1 1.18788 6.80933 -4.71574 
1837 1 2.01895 6.60918 -4.83238 
1689 1 1.90132 6.34987 -3.81506 
1130 1 2.48008 5.96344 -5.23632 
248 1 3.41546 7.12328 -5.52429 
1882 1 3.45972 6.15445 -5.38564 
811 1 2.1662 7.17038 -5.52448 
798 1 4.34275 6.74052 -5.45608 
2483 1 4.04756 6.47782 -4.66025 
3290 2 4.82915 -6.77249 -4.76531 
2926 2 5.13879 6.64894 -4.82984 
213 1 -6.62252 5.61052 -4.51992 
1667 1 6.21848 6.32902 -5.59762 
2088 1 6.13116 6.633 -4.14464 
440 1 6.23029 6.99339 -4.89434 
655 1 -6.73479 6.8637 -3.96359 
316 1 -6.8291 -6.07116 -4.39498 
947 1 -6.87331 -6.93855 -2.53187 
698 1 -4.84994 -6.40055 -4.4384 
3228 2 -5.71403 -6.92376 -3.81081 
2462 1 -4.62429 -6.25411 -3.57404 
3413 2 -3.49002 -6.361 -4.42427 
3562 2 -3.66743 -5.63422 -4.16804 
1406 1 -2.6395 -6.32319 -3.72147 
1665 1 -1.9929 -6.82307 -4.14572 
1144 1 -1.41365 -6.1972 -3.8488 
1327 1 -1.52 6.61861 -4.43314 
1585 1 -0.602796 -5.69779 -4.06119 
2453 1 0.200428 -7.18388 -5.10317 
1089 1 -1.11739 -6.94596 -4.02124 
3056 2 0.562904 -6.96884 -3.44431 
1810 1 -0.730255 -6.57028 -3.23886 
2238 1 1.35228 -6.64631 -4.11744 
1289 1 0.73235 -6.8132 -4.61476 
2918 2 2.6053 -6.14842 -4.13649 
189 1 3.7849 -6.94869 -4.65781 
112 1 3.47561 -6.3274 -3.51247 
538 1 5.21191 -6.73001 -3.73285 
1000 1 4.25367 -6.07373 -3.49257 
72 1 5.72452 -6.15987 -3.9312 
2615 1 7.02022 -6.99363 -4.39062 
2571 1 -6.91063 -6.54273 -3.64213 
3375 2 -5.92749 -6.25498 -3.70053 
2896 2 -5.91246 -5.51925 -3.44288 
2388 1 -6.87311 -4.99364 -4.25737 
1664 1 -7.03341 -5.50453 -3.57925 
2323 1 -5.28306 -5.75421 -4.75403 
595 1 -4.94526 -5.603 -4.10658 
3536 2 -3.99063 -4.95989 -4.09159 
228 1 -3.42569 -4.71368 -5.11406 
2038 1 -1.89701 -5.358 -3.65247 
666 1 -3.25996 -5.58477 -3.20302 
1163 1 -1.58893 -3.90328 -3.20932 
1127 1 -1.21689 -4.90321 -3.74757 
1028 1 -0.018492 -5.11828 -4.46138 
2623 1 1.42991 -5.78399 -4.51838 
1611 1 0.906936 -5.26749 -4.16223 
1538 1 0.435078 -6.02808 -4.54752 
2105 1 1.27291 -5.97476 -3.64758 
3379 2 2.27439 -5.42606 -3.9134 
3230 2 2.0573 -4.55043 -3.72678 
2145 1 3.47731 -5.01414 -4.96932 
3244 2 4.35494 -4.38419 -4.34714 
834 1 3.37445 -5.10031 -4.01253 
2722 1 3.7948 -4.34997 -3.09365 
3340 2 4.59811 -5.11548 -4.47571 
997 1 5.79587 -5.18226 -3.92497 
1994 1 5.66509 -4.72165 -4.68118 
2521 1 6.65195 -4.40498 -3.79298 
1013 1 6.71909 -6.20171 -4.08161 
2507 1 6.6513 -5.30653 -4.00226 
1354 1 -6.95506 -3.90273 -4.03895 
3286 2 -5.95524 -4.71046 -3.39356 
1542 1 -5.72894 -4.654 -4.52468 
2375 1 -5.71722 -1.90382 -3.88171 
1251 1 -5.90503 -3.57143 -4.31932 
3376 2 -3.84922 -4.23687 -3.9389 
3083 2 -4.04466 -3.55324 -3.77471 
977 1 -2.89014 -4.32353 -4.51545 
1299 1 -2.01065 -4.53633 -3.63143 
3285 2 -1.80614 -4.36244 -4.56724 
3198 2 -1.78356 -3.62679 -4.42326 
1846 1 -0.989532 -4.07457 -3.7197 
1195 1 0.0481845 -3.37122 -3.70562 
1491 1 0.264489 -4.30512 -4.00667 
2540 1 0.785277 -3.7883 -3.73171 
247 1 1.10642 -4.75626 -3.49424 
692 1 1.29959 -4.34075 -4.3442 
850 1 3.10139 -4.23811 -4.62134 
1215 1 2.89032 -3.14371 -4.25801 
3320 2 1.95589 -3.1824 -3.20808 
3015 2 2.06807 -3.81125 -3.53771 
2857 2 4.14492 -3.71041 -4.0211 
27 1 3.14335 -4.06417 -3.80815 
1595 1 5.29237 -3.72827 -4.56844 
1428 1 4.97754 -4.76379 -3.53042 
2670 1 5.72058 -4.26483 -3.95453 
168 1 5.3112 -3.75797 -3.54407 
1444 1 -6.9753 -2.36858 -5.08946 
2351 1 -6.42266 -1.44898 -3.92446 
56 1 -5.15772 -2.86015 -4.13749 
1182 1 -4.51703 -3.22691 -4.79154 
3229 2 -4.08603 -2.73722 -3.58646 
3447 2 -4.22863 -2.05833 -3.30543 
2044 1 -2.73453 -3.99586 -3.6471 
1285 1 -2.93628 -2.50561 -3.53902 
2302 1 -2.77172 -1.88495 -4.88208 
858 1 -0.926571 -1.98548 -4.18494 
2916 2 -1.93955 -2.86364 -4.36147 
358 1 -0.874622 -3.2611 -3.75191 
2400 1 -0.229884 -2.41063 -3.69255 
1055 1 0.449504 -1.77795 -3.41868 
2263 1 0.715748 -2.77698 -3.55475 
749 1 1.27641 -3.17205 -4.1943 
1830 1 2.81457 -2.26685 -3.74834 
2558 1 2.32224 -3.88141 -4.59836 
1653 1 3.20864 -3.17395 -3.31933 
656 1 2.11933 -2.74743 -4.19193 
3353 2 4.18067 -2.84673 -3.97618 
3134 2 3.98773 -2.07898 -3.83112 
2211 1 5.41837 -2.90617 -4.03666 
2646 1 4.99163 -2.9556 -3.21658 
960 1 5.10579 -1.88687 -3.85404 
3173 2 6.24852 -3.02022 -4.47799 
2858 2 6.42029 -2.14766 -4.47627 
1851 1 6.24588 -3.4084 -3.50677 
1294 1 -7.15705 -3.05376 -3.84378 
721 1 6.1573 -2.51184 -3.40946 
1316 1 -5.7763 -1.02498 -3.36912 
2132 1 -6.70229 -2.24921 -4.13606 
2657 1 6.96887 -2.34896 -3.36095 
1568 1 -6.50767 -0.632749 -3.68149 
1791 1 7.17864 -1.56923 -3.66542 
318 1 -4.84718 -1.98299 -4.34128 
1151 1 -4.72258 -1.56324 -5.1796 
2436 1 -5.21833 -1.22072 -4.05529 
2480 1 -4.38499 -0.848521 -4.31145 
1787 1 -3.62768 -0.804368 -3.74063 
2766 2 -2.04505 -2.12605 -4.22057 
1790 1 -3.3676 -1.64282 -3.97264 
2748 2 -2.2911 -1.40536 -3.94815 
1441 1 -0.84429 -0.330857 -3.50582 
1266 1 -1.31268 -1.86161 -3.23687 
3585 2 -0.0559788 -1.06566 -4.51882 
1065 1 -0.517441 -1.47966 -3.50399 
1239 1 1.37497 -2.226 -4.1543 
167 1 1.42798 -1.35034 -4.14875 
2020 1 0.769272 -0.978892 -3.66772 
1275 1 4.40149 -1.13346 -4.62791 
2460 1 2.53332 -0.300243 -3.02109 
1300 1 3.18236 -1.54408 -4.33699 
85 1 5.03131 -2.45603 -4.63159 
2914 2 3.87153 -1.35286 -3.56181 
3483 2 3.70759 -0.585535 -3.33143 
1226 1 5.68466 -1.87474 -3.2569 
734 1 4.88724 -1.13983 -2.99592 
3116 2 6.05617 -1.43382 -4.19223 
2856 2 5.85194 -0.570373 -4.11353 
1560 1 6.95865 -0.64111 -3.58461 
3267 2 -6.21914 -0.264736 -4.64249 
2028 1 -6.73101 0.136634 -3.58102 
1953 1 -5.07057 -0.222593 -4.60518 
697 1 -5.44843 -0.411184 -3.85801 
1671 1 -3.6115 -0.00341468 -3.97948 
2363 1 -4.4365 0.0594658 -4.08877 
1809 1 -3.58708 0.196066 -3.12898 
2448 1 -4.40011 0.85406 -3.98173 
2789 2 -2.39992 -0.650037 -3.83374 
3490 2 -2.41102 0.0258893 -3.5866 
1777 1 -1.73443 0.585722 -4.42766 
2228 1 -1.33855 0.410529 -3.29144 
883 1 -1.56368 1.25763 -3.64075 
3500 2 -0.225378 -0.210794 -4.36263 
3555 2 -0.550503 0.588197 -4.15523 
1432 1 0.376879 -0.00172035 -3.32945 
876 1 1.87613 -0.462633 -3.84084 
1176 1 2.20111 0.639114 -3.26922 
2407 1 2.59113 -0.822774 -4.20265 
2084 1 2.66451 0.324769 -3.9613 
2575 1 2.68915 1.21347 -3.86945 
2135 1 3.46859 0.48522 -4.49889 
665 1 4.93221 -0.379154 -4.88072 
3305 2 3.48196 0.0136866 -3.33822 
2201 1 4.704 -0.0597995 -3.66902 
2902 2 5.81175 0.170275 -3.9417 
410 1 5.02333 -0.964389 -3.99709 
1927 1 6.74847 1.16668 -4.04109 
2642 1 7.08401 0.259703 -4.29696 
2819 2 5.7439 0.898355 -3.70675 
49 1 6.71665 0.462827 -3.40941 
3186 2 -6.39759 0.581424 -4.55591 
3263 2 -6.56805 1.42141 -4.20688 
1880 1 -6.78315 0.912502 -3.14479 
750 1 -6.80982 1.97721 -3.0975 
1169 1 -5.47781 1.32004 -3.88374 
1725 1 -5.21318 0.562243 -4.30761 
1060 1 -5.47301 2.27266 -4.08052 
2508 1 -3.87083 1.72536 -3.93346 
594 1 -3.49032 0.759286 -4.29267 
731 1 -4.80223 1.70035 -3.86201 
521 1 -3.90582 0.886924 -3.39621 
3588 2 -2.67244 0.864372 -3.32828 
286 1 -2.09032 1.47376 -4.30031 
3120 2 -2.74394 1.5968 -3.39565 
1894 1 -1.43973 1.77098 -3.05931 
2950 2 -0.493435 1.43021 -4.1368 
3443 2 1.7184 1.36322 -4.64421 
1763 1 0.657331 0.280042 -5.01772 
414 1 1.44367 0.525554 -3.6076 
2650 1 1.86075 1.48302 -3.32228 
1375 1 0.654583 0.519457 -3.92395 
2186 1 0.243558 0.985216 -3.12177 
1788 1 2.84461 1.15363 -4.64712 
1524 1 3.11686 1.98659 -4.21187 
1325 1 4.47252 0.63329 -4.08349 
377 1 3.8271 1.26564 -4.26506 
82 1 5.01558 0.550467 -4.81369 
3209 2 5.69118 1.58181 -3.75981 
3369 2 5.45703 2.2393 -3.44611 
2584 1 6.5535 2.05159 -3.97163 
3260 2 -6.63709 2.16813 -4.04994 
3033 2 -6.79327 3.03224 -4.1406 
1955 1 -6.22319 2.70506 -2.82027 
1148 1 -4.29468 3.27862 -3.22571 
554 1 -5.36487 2.96387 -3.60955 
1913 1 -5.80356 2.25351 -3.27481 
2551 1 -4.6514 2.42565 -3.46476 
2395 1 -3.22391 2.41135 -4.27891 
2490 1 -2.36454 2.3683 -4.20059 
3372 2 -2.74723 2.45034 -3.17808 
1367 1 -1.71225 2.34225 -3.64518 
2860 2 -0.562118 2.96272 -3.57559 
772 1 0.665534 2.33063 -3.85169 
3196 2 -0.514973 2.22423 -3.76821 
1486 1 0.310467 3.72711 -3.84366 
3241 2 1.52284 2.00873 -4.38603 
3063 2 1.64379 2.76793 -4.19439 
2313 1 1.26768 2.30355 -3.29057 
2286 1 0.905496 3.19041 -3.4826 
1466 1 2.81907 2.94892 -3.80105 
2592 1 2.68918 2.76721 -4.67451 
1532 1 2.13614 3.54668 -3.35765 
614 1 3.73884 2.53702 -3.89124 
891 1 4.57082 1.29587 -3.41378 