ITEM: TIMESTEP
25800
ITEM: NUMBER OF ATOMS
3594
ITEM: BOX BOUNDS pp pp pp
-7.2001439434268981e+00 7.2001439434268981e+00
-7.2001439434268981e+00 7.2001439434268981e+00
-7.2001439434268981e+00 7.2001439434268981e+00
ITEM: ATOMS id type x y z 
1263 1 -6.19029 -4.76666 -6.47641 
2206 1 6.88621 -6.58731 -7.17451 
3477 2 -5.04621 -5.98995 -5.83713 
1415 1 -6.91089 -7.09359 -6.69426 
1437 1 -5.56459 -6.37967 -6.95138 
3520 2 -4.99305 -5.31356 -5.60062 
601 1 -4.76262 -5.73712 -6.78252 
1140 1 -4.073 -6.4767 -6.65359 
1730 1 -3.4075 -6.66399 7.0668 
2944 2 -2.66828 -6.3533 -6.47828 
2018 1 -1.48483 -6.50268 -6.6963 
1435 1 -0.794367 -7.11561 -6.10211 
3368 2 -0.40571 -6.57452 -7.14431 
1643 1 -1.25915 -6.15415 -5.91644 
3537 2 -0.303344 7.10878 7.04225 
579 1 -0.151266 -6.61306 -5.91039 
1088 1 1.29855 -6.74404 -6.7112 
2537 1 0.574239 -5.94672 -6.95351 
1172 1 2.21505 -6.7205 -6.67214 
1097 1 2.95473 -6.23102 6.76546 
2957 2 3.2825 -6.00155 -6.15277 
3442 2 3.4356 -6.68157 -6.50339 
329 1 4.31997 -6.48017 7.16478 
1051 1 4.41551 -5.76452 -6.82388 
2787 2 5.63307 -6.36384 -7.1055 
2160 1 4.61217 -6.75072 -6.36022 
209 1 5.40276 -6.83919 -5.93946 
317 1 -6.94015 -6.2124 -6.34913 
3539 2 5.78962 -7.06585 -7.19904 
274 1 6.6409 7.12426 -6.62444 
1320 1 6.59839 -6.20375 -6.34695 
639 1 -6.2348 -5.50184 -5.67507 
3495 2 -6.8313 -5.31358 7.02516 
1184 1 -5.86731 -5.55555 -6.46104 
1406 1 -4.4632 -4.93408 -6.60711 
977 1 -5.95347 -4.7151 6.93007 
2727 1 -5.42181 -3.13243 -6.48568 
1718 1 -3.7154 -6.20529 -5.90604 
520 1 -3.10342 -5.81109 -5.32017 
754 1 -3.86347 -5.36728 -6.05071 
1979 1 -4.05002 -4.90038 -5.25295 
3574 2 -2.65725 -5.59485 -6.22076 
2981 2 -2.91863 -4.73031 -6.21734 
909 1 -1.68807 -5.46354 -6.68159 
1582 1 -0.820848 -4.935 -5.76137 
3019 2 -0.606998 -5.8355 -6.7486 
3484 2 -0.754647 -5.02031 -6.89883 
1689 1 0.0192805 -5.0852 -5.46496 
1734 1 1.69265 -5.79313 -6.40122 
1905 1 0.387414 -5.77066 -6.10978 
1663 1 1.11233 -5.0951 -6.41774 
1538 1 2.56563 -5.72577 -6.88059 
2933 2 3.27362 -5.1718 -5.84796 
2048 1 2.74337 -4.96489 -7.11433 
1029 1 3.591 -5.88561 7.12768 
1416 1 4.54776 -5.27245 -5.61361 
1471 1 4.24589 -4.48119 -7.10805 
3208 2 5.45122 -5.7875 -6.66623 
2812 2 5.31505 -4.87489 -6.5865 
695 1 -7.02738 -5.34348 -6.07198 
659 1 6.57305 -5.38102 -6.63106 
2015 1 6.14326 -4.82111 -5.81564 
3029 2 -7.08829 -4.54269 -7.19812 
2122 1 -5.34939 -4.61781 -6.77888 
2254 1 -6.33699 -3.03124 -6.0633 
2975 2 -6.99082 -3.75314 -7.0459 
1345 1 -6.02666 -3.83503 7.12277 
1392 1 -4.8573 -2.76671 -6.09448 
2612 1 -3.86388 -3.98363 -6.80725 
2706 1 -4.7764 -3.92232 -6.45952 
3041 2 -3.38777 -3.25552 -6.03868 
3061 2 -2.99939 -3.99405 -5.93777 
594 1 -2.03698 -3.7952 -6.36453 
2289 1 -1.73205 -4.55975 -6.24354 
2808 2 -0.825478 -4.19998 -6.82636 
1050 1 0.104151 -4.87494 -6.25105 
1836 1 -0.0676984 -4.16681 -5.88362 
2520 1 0.178633 -3.53027 -6.4968 
19 1 1.83119 -3.7239 -6.29032 
1210 1 0.862888 -4.33083 -6.20864 
701 1 2.61066 -4.0794 -6.75589 
308 1 2.29056 -3.45293 -7.0768 
2150 1 3.48243 -4.13718 -6.78985 
2631 1 3.91473 -3.27298 -6.53165 
589 1 4.25615 -5.03479 -6.37999 
628 1 4.29992 -3.27218 7.12668 
3212 2 5.14416 -4.11495 -6.38583 
478 1 5.83201 -4.13435 6.90138 
1918 1 -7.19547 -4.64274 -5.97189 
1527 1 6.41992 -4.05873 -6.20552 
2101 1 6.63413 -4.21274 6.32849 
1450 1 -5.72452 -2.23866 -6.4066 
2106 1 -6.47535 -2.21863 -6.39106 
2641 1 -5.79141 -1.24937 -6.29037 
2137 1 -6.34145 -1.98428 -7.16544 
1459 1 -5.17961 -1.77034 -6.01972 
1361 1 -4.33739 -2.3615 -6.56439 
1315 1 -3.15087 -2.44214 -6.73278 
2699 1 -4.18652 -3.20163 -6.72657 
667 1 -3.80089 -2.72133 6.9878 
2139 1 -1.77987 -3.91528 -5.51435 
1474 1 -3.09745 -3.40319 -7.17623 
1356 1 -2.10288 -3.57268 -7.19951 
3332 2 -0.900563 -3.43568 -6.54372 
3234 2 -1.19753 -2.69447 -6.51031 
1074 1 -0.238371 -2.82641 -7.16429 
2105 1 0.718676 -2.21949 -5.88581 
3347 2 0.918086 -2.30084 -6.98758 
2599 1 1.89376 -2.70654 -6.43332 
502 1 0.63793 -3.12517 -6.06715 
2804 2 0.739015 -1.50117 -6.90368 
1374 1 2.18637 -3.64134 6.54425 
1770 1 3.05999 -3.15469 -6.60337 
1897 1 3.29894 -2.28189 -6.2475 
2767 2 4.8311 -2.55793 -6.0711 
3266 2 4.93072 -3.33278 -6.1874 
2220 1 6.00249 -1.88312 7.07088 
1372 1 6.02313 -3.53288 -6.66538 
3126 2 7.14015 -3.11865 -6.67616 
3087 2 6.97655 -2.2908 -6.76289 
2074 1 -6.7067 -1.12595 -6.99322 
547 1 -5.94796 -0.346439 -5.84603 
923 1 -4.46676 -0.461382 -7.03829 
3360 2 -5.48497 -0.997896 7.14539 
2892 2 -5.12461 -1.87469 7.05987 
1784 1 -3.92613 -1.82184 -7.001 
900 1 -2.2972 -1.75382 -7.02197 
395 1 -2.52718 -1.39428 -6.09282 
1370 1 -2.53919 -0.803074 -6.73114 
3105 2 -1.41116 -1.84138 -6.30452 
3200 2 -1.50638 -1.01888 -6.16171 
2589 1 0.250777 -1.55896 -5.72247 
3151 2 0.715713 -0.749541 -6.63653 
2057 1 -0.539845 -2.38174 -5.61798 
2178 1 2.004 -1.651 -6.80564 
925 1 1.77214 -0.615631 -7.0126 
1313 1 2.57768 -2.33315 -6.57253 
2013 1 1.74749 -1.22001 -6.2021 
296 1 2.8008 -1.36796 -6.43962 
483 1 3.70517 -1.61474 -6.63448 
1698 1 3.84456 -0.72719 -6.74637 
1414 1 5.65813 -2.78378 7.1675 
656 1 4.64463 -1.35434 -7.10563 
3550 2 4.66737 -1.84055 -6.03591 
70 1 4.41484 -2.17219 6.87055 
2500 1 5.69177 -1.74973 -6.44378 
2840 2 6.77345 -1.49207 -6.67967 
2011 1 5.90651 -0.910303 7.02527 
2597 1 -7.03597 -0.377953 7.04029 
571 1 -6.89395 0.206906 -6.82923 
1369 1 -6.73751 -0.388809 -6.15437 
3097 2 -5.73742 -0.237961 -6.88386 
83 1 -4.30471 0.21474 -6.32312 
3127 2 -5.75157 0.528309 -6.78995 
2037 1 -5.2482 0.372592 -5.88873 
174 1 -3.20854 -1.52319 -6.68715 
2560 1 -3.93815 -0.905971 -6.69511 
3154 2 -3.42604 0.678571 7.17506 
1894 1 -2.51765 0.23786 -6.4942 
1457 1 -3.51992 -0.277521 -6.41006 
1353 1 -2.37892 0.0777829 6.44155 
2108 1 -0.56063 -1.57284 -5.66334 
2796 2 -1.64281 -0.169139 -5.9344 
1993 1 -1.3699 -0.218941 -6.94274 
28 1 -2.28098 0.0593817 7.18661 
640 1 -0.70119 -0.0201099 -6.33425 
731 1 -0.447226 -0.904286 -6.1457 
3311 2 0.240706 0.634421 -6.31106 
3088 2 0.500987 -0.115595 -6.52201 
1837 1 1.24582 -0.525281 -5.77189 
693 1 2.1996 0.784338 -5.70878 
624 1 1.89447 0.143076 -6.17924 
859 1 2.35832 -0.510154 -6.23204 
2730 1 3.42522 -1.10093 -6.03309 
530 1 3.39908 -0.0954531 -6.34195 
2535 1 4.71849 -0.46143 -6.9445 
346 1 5.40588 0.0732397 -5.00506 
377 1 5.51954 -0.13138 -5.7402 
1788 1 5.86286 -0.96696 -5.53255 
1185 1 5.70583 -0.0467173 -7.19386 
2797 2 6.70461 -0.800581 -6.48933 
3135 2 6.42095 0.0639503 -6.36421 
3140 2 -5.99268 2.12467 -6.31078 
385 1 -6.9181 0.770679 -6.35449 
3007 2 -5.8988 1.31636 -6.55199 
1367 1 -4.66745 2.07504 -6.46169 
1607 1 -4.35765 1.01002 -6.10086 
1986 1 -3.7299 1.46222 -6.01867 
1238 1 -4.05456 2.21634 -5.88225 
561 1 -2.91751 1.32851 -6.27433 
2523 1 -2.47342 1.61517 -6.94835 
2508 1 -1.98562 0.946625 -6.85062 
1933 1 -0.0783887 1.13333 6.9606 
818 1 -1.17386 0.779088 -6.76762 
2928 2 0.13153 1.44769 -6.20421 
3078 2 0.0374061 2.2078 -6.22 
994 1 -0.549575 0.294467 7.1592 
1828 1 1.4774 0.903728 -6.42275 
3393 2 2.33688 1.62103 -6.73179 
3417 2 2.26699 2.39186 -6.57999 
970 1 3.29095 1.06106 -6.25442 
2380 1 4.44104 1.2489 -6.50894 
1176 1 5.28027 1.16465 -6.67676 
1889 1 3.71081 1.72797 -6.49411 
2183 1 4.3306 0.270488 -6.83644 
2276 1 5.22254 0.216803 -6.62625 
1883 1 5.31136 2.87264 6.96783 
3038 2 6.36103 0.90095 -6.08418 
2072 1 -7.00966 1.48481 -6.87189 
3465 2 -6.26243 2.81565 -6.29368 
339 1 -7.01404 2.41668 -6.98456 
2736 2 -6.4164 3.57451 -6.12494 
2151 1 -6.99217 1.82857 -6.16835 
2010 1 -5.07206 2.84223 -6.77008 
1335 1 -4.97797 3.30496 -5.90673 
3093 2 -4.0288 3.18267 -6.90448 
2783 2 -4.39236 3.93759 -6.69151 
1543 1 -1.93161 2.05619 -6.50709 
883 1 -2.26205 3.90805 -6.12637 
1623 1 -1.12378 1.60702 -6.2884 
1308 1 -1.39676 3.38478 -6.50616 
323 1 -0.724769 1.55002 -7.07103 
1877 1 -0.274186 2.48553 6.97662 
3444 2 -0.277038 2.9149 -5.90489 
2813 2 -0.315083 3.65375 -5.72326 
84 1 1.15051 2.0564 -6.48598 
1817 1 0.751687 2.88778 -5.35704 
1368 1 0.916015 2.71266 -7.03538 
2673 1 0.97471 2.80751 -6.13861 
3478 2 2.19589 3.10724 -6.79554 
3466 2 1.72032 3.49336 -6.45787 
1113 1 3.30036 2.48065 -7.06829 
47 1 3.15946 2.16151 -5.87111 
2092 1 3.34075 2.85172 -6.31079 
221 1 4.36722 2.36735 -6.23348 
3551 2 4.26005 3.22785 -7.0895 
2305 1 5.71681 3.08342 -6.64217 
2066 1 5.20811 2.09335 -6.64803 
2130 1 5.70335 2.04219 7.11079 
1229 1 7.04017 2.54818 -5.98281 
1927 1 6.54984 1.90565 -6.97502 
2594 1 -6.98692 3.37 -7.07828 
3238 2 -6.46598 4.30284 -5.92652 
1833 1 -5.49264 4.6433 -6.09469 
1862 1 -5.44453 3.69815 -6.64064 
1476 1 -5.70316 4.59369 -6.94633 
3408 2 -4.43614 4.61791 -6.49461 
3411 2 -4.57426 5.36397 -6.3951 
803 1 -3.22983 3.24727 -6.01528 
1523 1 -2.65404 3.49257 -6.7818 
287 1 -2.05716 3.04118 -6.31933 
345 1 -2.53223 4.72105 -6.1144 
2522 1 -0.952976 2.54281 -6.83904 
597 1 -0.556724 3.53869 -6.89669 
2270 1 -0.682274 4.71014 -6.69718 
1639 1 0.221092 3.21262 -7.08279 
103 1 -0.140108 5.47096 -6.68133 
2304 1 0.214944 4.06461 -6.6504 
1257 1 0.840359 3.68657 -6.1782 
3138 2 1.6513 4.37002 -6.30956 
1505 1 0.408457 4.61154 -6.01545 
2271 1 0.899397 4.00773 -7.1567 
1923 1 2.77452 4.14447 -6.21099 
3223 2 4.10663 3.98607 -6.92156 
865 1 5.04095 2.8486 -6.07916 
16 1 4.94573 3.8278 -6.14869 
112 1 6.06584 3.9946 -6.30131 
404 1 6.44177 2.74176 -6.72195 
122 1 6.72446 3.44904 -6.50531 
131 1 6.78861 3.59312 -5.58594 
1727 1 6.81877 4.33309 -6.56837 
3045 2 -6.87441 4.89405 -5.79614 
3147 2 -6.74859 5.69174 -5.64746 
1413 1 -5.84171 5.46272 -6.24137 
2308 1 -5.31172 5.29472 7.05113 
1481 1 -5.48251 5.64721 -5.54163 
3471 2 -4.54535 6.12289 -6.28799 
2459 1 -3.62967 5.84014 -6.97848 
2376 1 -3.27776 5.2102 -6.64354 
2832 2 -2.32684 5.82144 -6.98628 
964 1 -3.25415 4.20225 -7.00792 
2332 1 -2.83886 5.68184 -5.82753 
448 1 -1.4609 5.02684 -6.40224 
2839 2 -2.2367 5.05114 -7.12185 
948 1 -1.31082 6.27332 -6.94124 
1665 1 -1.84469 4.40026 -5.70258 
2635 1 -1.40938 4.18784 -6.53013 
324 1 0.81514 5.94359 -6.93345 
1521 1 0.142216 6.00178 -6.36333 
1016 1 0.634913 4.97064 -6.8761 
2831 2 1.44418 5.07309 -6.17228 
2899 2 1.34846 5.85715 -6.03219 
546 1 2.44734 5.81796 -6.43913 
2212 1 2.63342 4.77395 -6.83772 
3215 2 3.81193 4.76299 -6.71364 
2790 2 3.63102 5.47643 -6.67708 
862 1 3.75793 4.68453 -5.58672 
213 1 5.5201 4.86009 -6.44662 
1584 1 5.62544 6.01772 -6.11823 
805 1 4.72436 4.62144 -6.3783 
684 1 4.5246 5.30669 6.91432 
248 1 5.61946 6.80167 -6.12133 
2142 1 6.45021 5.19237 -6.45913 
1667 1 6.56941 4.53878 -5.75798 
2045 1 -6.44806 5.88269 -6.84688 
1004 1 -6.33317 6.72623 -6.7064 
1885 1 -5.36209 6.11818 -6.99433 
3330 2 -6.92628 6.47225 -5.66185 
1616 1 -5.87645 -7.17434 -6.27649 
3150 2 -4.90287 -6.75484 -5.87491 
3463 2 -4.74158 6.79803 -6.02482 
1733 1 -3.53332 6.76218 7.11004 
3268 2 -2.50812 -7.04532 -6.61627 
3454 2 -2.52799 6.56093 -6.78886 
786 1 -0.608319 6.49548 -6.52742 
104 1 -1.7124 6.22936 -5.9992 
741 1 -1.5457 7.01169 -5.92253 
1634 1 0.127294 6.93552 -6.26337 
215 1 0.831407 6.79205 -6.90408 
2415 1 0.619244 -6.60617 -6.50339 
1168 1 1.76143 6.81087 -6.90897 
290 1 1.03635 6.58916 6.56194 
430 1 1.46011 5.27064 7.15309 
1249 1 1.44075 6.02933 7.15028 
2168 1 2.35851 6.84882 -6.19317 
3587 2 3.6277 7.01794 -6.37326 
3569 2 3.5498 6.23547 -6.67388 
1530 1 6.22593 -6.80657 -5.94916 
2088 1 4.95552 5.42821 -6.76705 
1295 1 4.73923 6.1668 -7.1195 
66 1 6.53263 6.17974 -6.33285 
2573 1 -7.12764 6.26491 -6.82743 
244 1 6.25914 6.45963 -5.53057 
2828 2 7.18094 -5.73873 -5.07383 
3487 2 -7.05229 -6.51471 -5.31609 
558 1 -6.14016 -6.31842 -6.15329 
1551 1 -5.30897 -5.82774 -4.71677 
2248 1 -4.31424 -6.8294 -4.82731 
1864 1 -5.31196 -6.71979 -4.75707 
2033 1 -3.90357 -6.99522 -5.60152 
101 1 -3.71278 7.12713 -6.51159 
2058 1 -1.66732 -5.38633 -5.67245 
2453 1 -2.26632 -6.01196 -5.08777 
2283 1 -3.00739 -6.67397 -5.47093 
897 1 -1.84423 -6.58971 -5.69132 
3594 2 -1.09696 -6.63341 -4.80138 
3322 2 -1.14936 -5.83033 -4.72317 
245 1 0.173015 -6.36038 -4.97133 
1107 1 0.950547 -6.80903 -4.53635 
2826 2 1.12789 -6.13447 -5.57092 
1998 1 2.37551 -5.94292 -4.98772 
2379 1 2.17706 -5.26646 -5.77853 
2564 1 2.62371 -7.00153 -5.51748 
2256 1 4.4714 -6.10602 -5.85503 
1848 1 4.39999 -7.0919 -5.63584 
3290 2 4.88997 -6.60227 -4.63891 
168 1 5.3642 -6.15419 -5.48504 
2926 2 5.08216 7.01107 -4.82227 
2574 1 6.18505 -7.05216 -5.14052 
2521 1 -5.92185 -6.43891 -5.30943 
318 1 -5.76143 -3.90363 -6.39866 
1994 1 -6.26843 -4.5016 -5.4518 
3416 2 -5.24248 -4.64108 -5.66323 
587 1 -6.30081 -5.0769 -4.89063 
3325 2 -5.36134 -3.90791 -5.38101 
1299 1 -5.00833 -4.19784 -4.1312 
262 1 -4.02616 -4.34175 -5.8708 
1465 1 -4.5437 -5.04101 -4.56803 
484 1 -2.06831 -4.75147 -5.31083 
2350 1 -2.43041 -5.37619 -4.61392 
1470 1 -3.12846 -4.91385 -5.16264 
3480 2 -1.10261 -4.95577 -4.7397 
1133 1 -0.178057 -4.62099 -4.77943 
1567 1 -0.514247 -5.90797 -5.59776 
798 1 -0.112806 -5.54077 -4.86023 
2238 1 -0.162258 -5.17312 -3.93484 
3068 2 1.22511 -5.18817 -5.30925 
2768 2 0.889255 -4.38096 -5.24449 
393 1 1.94347 -4.65498 -6.50062 
1425 1 3.32747 -4.01364 -4.32908 
2113 1 3.12322 -6.37835 -5.10363 
2623 1 2.46948 -4.79857 -4.89704 
799 1 3.10409 -5.35068 -4.69859 
1075 1 3.9448 -6.48452 -5.25661 
709 1 3.93578 -5.48235 -5.14954 
281 1 5.40703 -5.24401 -5.37365 
144 1 5.35595 -4.44621 -5.20708 
2009 1 6.29125 -5.80598 -5.57131 
190 1 6.04557 -6.22443 -4.82167 
3010 2 6.81529 -5.02158 -4.88344 
3080 2 6.9121 -4.29892 -4.94318 
1078 1 -6.91182 -3.10259 -5.44526 
472 1 -6.64962 -3.77248 -4.9518 
2912 2 -5.59971 -3.0649 -5.26645 
572 1 -4.51845 -4.1292 -4.7987 
1144 1 -3.75714 -2.94775 -4.75497 
874 1 -4.4343 -3.33747 -5.65129 
477 1 -3.54906 -3.95746 -5.05756 
658 1 -2.5629 -3.73711 -5.04941 
2083 1 -2.9613 -3.33101 -4.47582 
2718 1 -1.65293 -3.06014 -5.38499 
2439 1 -1.07096 -4.12243 -5.66094 
250 1 -0.327392 -3.3269 -5.63438 
3227 2 0.737026 -3.53465 -4.98391 
842 1 -0.388351 -3.82349 -5.0348 
3430 2 0.512516 -2.6902 -4.96939 
1611 1 1.90099 -4.32886 -5.59375 
3249 2 3.04438 -4.43952 -5.81734 
3014 2 2.97838 -3.73708 -5.62294 
2306 1 3.99241 -3.72297 -5.15905 
847 1 3.64446 -4.6058 -4.86279 
1859 1 4.04417 -4.14895 -6.093 
1695 1 4.57069 -4.47242 -5.33471 
1034 1 4.25621 -2.93242 -5.20338 
452 1 5.19221 -3.39575 -5.06693 
1325 1 6.76655 -3.54937 -5.73902 
3173 2 6.6308 -3.69941 -4.60168 
2721 1 5.92593 -3.80318 -5.44527 
1282 1 -6.63752 -2.62947 -4.8999 
960 1 -7.01441 -1.9566 -4.61035 
2737 2 -5.7173 -2.27377 -5.02846 
2890 2 -6.10159 -1.70579 -5.3263 
1285 1 -4.51028 -2.81957 -5.07044 
2869 2 -3.63424 -2.34615 -5.68335 
2400 1 -3.33521 -2.40667 -4.51242 
2674 1 -4.88525 -2.34093 -4.25593 
2549 1 -2.61146 -2.15343 -5.99375 
1928 1 -3.26731 -1.46957 -4.60927 
1738 1 -2.7313 -2.08357 -5.12219 
1722 1 -2.20549 -2.9032 -6.1969 
2465 1 -2.03242 -1.3043 -5.2094 
871 1 -2.47782 -2.9608 -5.32521 
3354 2 0.154316 -2.13069 -4.62567 
139 1 -0.0821566 -2.51808 -6.25579 
1380 1 -1.74376 -2.2831 -5.29666 
2558 1 1.95949 -3.65567 -5.04747 
1843 1 1.67495 -2.79578 -5.06264 
984 1 1.42799 -3.10597 -5.80664 
2830 2 2.61018 -3.1229 -5.52562 
3356 2 2.5258 -2.3049 -5.4062 
1215 1 3.26953 -3.12656 -4.50924 
388 1 3.72514 -3.0514 -5.78871 
153 1 3.63782 -2.40628 -4.83215 
1472 1 5.75965 -2.73627 -5.48083 
2211 1 5.99937 -2.65811 -6.40473 
148 1 5.41903 -1.79917 -5.29163 
802 1 6.69441 -2.69583 -5.49667 
1354 1 -6.61691 -1.22285 -6.08804 
670 1 -7.01133 -0.544386 -5.36614 
2974 2 -6.12675 -1.18145 -4.75741 
2993 2 -5.89073 -0.451099 -4.88202 
1800 1 -4.58758 -1.51837 -6.49597 
1087 1 -5.16965 -1.0022 -5.44719 
1445 1 -4.70784 -2.167 -5.46411 
1316 1 -4.85275 -1.44456 -4.80147 
2844 2 -3.81862 -1.58421 -5.67975 
3543 2 -4.03203 -0.899137 -5.61752 
2543 1 -2.84388 -0.961435 -5.22894 
1790 1 -3.1502 -0.45906 -4.58457 
527 1 -1.13648 -1.75162 -5.0027 
1953 1 -1.95799 -0.397228 -4.9264 
1812 1 -1.08047 -0.79559 -5.14988 
1484 1 0.262276 -0.71044 -5.58577 
3585 2 -0.0437052 -1.40377 -4.66402 
1057 1 1.48545 -2.12334 -5.79514 
607 1 1.08559 -1.34024 -5.72123 
3557 2 2.29829 -1.62307 -5.30112 
3449 2 2.19448 -0.871722 -5.17953 
2407 1 3.66013 -2.11017 -5.62127 
2617 1 4.77126 -2.35795 -4.93821 
110 1 3.03157 -0.454371 -5.51933 
2972 2 4.57606 -1.04817 -5.84085 
823 1 3.49414 -1.46256 -5.20624 
1237 1 3.08643 -1.84864 -4.45644 
2360 1 4.31282 -1.48332 -4.89731 
1364 1 4.81223 -0.673271 -4.0261 
1151 1 7.19278 -1.8624 -5.51046 
1648 1 5.14536 -0.848332 -4.98917 
1207 1 6.20443 -1.88374 -5.6448 
2126 1 7.19964 -0.238045 -4.57209 
3267 2 -6.26015 0.179888 -4.61308 
3186 2 -6.45842 0.986335 -4.43314 
351 1 -5.04189 -0.626429 -6.24444 
1001 1 -5.09969 0.145248 -5.18843 
1483 1 -6.27595 0.39207 -5.76438 
3256 2 -4.11235 -0.232867 -5.29474 
1880 1 -2.53425 0.428082 -4.70898 
743 1 -3.29535 0.60106 -6.06227 
2077 1 -2.78969 -0.481726 -5.87864 
2601 1 -2.90548 0.177699 -5.45466 
857 1 -1.77457 0.668638 -4.41604 
2939 2 -1.90689 0.64061 -5.72773 
1531 1 -1.03268 0.36518 -5.18658 
154 1 -0.341278 -0.192815 -5.63311 
400 1 0.0322782 0.496978 -5.11615 
851 1 0.907089 0.33368 -5.57477 
1777 1 0.593617 -0.0197445 -4.93619 
603 1 0.719694 1.12742 -5.38561 
3383 2 1.98409 -0.0108999 -4.97118 
3443 2 1.67009 0.781694 -4.77472 
1830 1 3.36559 0.0646998 -4.72981 
2995 2 4.41822 -0.219941 -5.79862 
1322 1 4.52391 -0.259148 -4.64465 
1331 1 6.82848 -1.07457 -5.13125 
1340 1 6.35292 -0.217497 -5.12111 
2584 1 -6.87172 1.45378 -5.34797 
90 1 7.18237 0.294921 -5.4081 
2383 1 -6.01872 1.15884 -5.36442 
2297 1 -7.0486 2.79529 -5.27806 
625 1 -5.00202 1.50852 -5.81416 
521 1 -5.28623 0.768411 -4.75046 
3144 2 -4.00352 0.486213 -5.07907 
2861 2 -4.45747 1.12502 -4.88009 
330 1 -3.14673 1.29959 -5.15211 
2846 2 -2.16501 1.40017 -5.55425 
1910 1 -2.39019 1.36159 -4.44211 
1978 1 -0.788447 0.842069 -6.08037 
2529 1 -1.28213 1.14571 -4.85532 
2708 1 -0.514581 1.12241 -5.31832 
2285 1 -0.0245191 1.8037 -5.08294 
1971 1 0.529209 1.04607 -4.56376 
1432 1 1.31375 1.59332 -5.80045 
1618 1 0.759109 2.01659 -5.2062 
3241 2 1.67636 1.48796 -4.62399 
1997 1 2.91142 0.310389 -5.73138 
414 1 2.93742 0.761551 -4.89057 
673 1 2.94536 1.40057 -5.55801 
785 1 2.81358 1.61847 -4.7126 
3317 2 4.06251 0.463975 -5.67211 
2848 2 4.07986 1.20169 -5.43628 
2327 1 5.28763 0.770084 -5.93386 
1402 1 5.3467 1.19908 -5.20947 
140 1 6.18319 0.606881 -5.0619 
3060 2 6.25571 1.61419 -5.90596 
806 1 -6.48536 2.23545 -5.23147 
115 1 6.70943 2.98568 -4.65021 
668 1 -6.30567 3.13248 -4.99575 
491 1 -5.60037 3.23159 -5.37607 
1318 1 -4.97113 2.4023 -5.73881 
928 1 -5.56001 1.9539 -5.27566 
2845 2 -4.56799 2.51482 -4.71917 
1745 1 -3.11572 2.23601 -6.07317 
3062 2 -4.27197 1.79035 -4.67476 
2436 1 -4.0173 3.00986 -5.68455 
2466 1 -3.59613 2.8594 -4.72153 
3117 2 -2.27695 2.17181 -5.27435 
2490 1 -3.52186 2.10208 -5.26294 
2945 2 -2.53288 2.90406 -5.22689 
1486 1 -1.37749 2.545 -5.95003 
1198 1 -0.958615 1.81941 -5.49111 
1661 1 0.105261 2.79808 -4.5535 
75 1 -0.578587 2.40427 -4.91842 
614 1 1.63267 2.48827 -5.66691 
588 1 1.70045 3.31863 -5.38663 
1098 1 0.32299 3.42056 -4.90045 
867 1 2.15939 1.71461 -5.60925 
946 1 2.41686 2.6076 -5.49569 
3364 2 3.90008 2.05972 -5.13544 
3388 2 3.72716 2.80773 -5.12534 
899 1 4.96605 1.76949 -5.7954 
2231 1 5.5248 1.87446 -4.6657 
1398 1 5.00716 2.26658 -5.18541 
817 1 6.95351 1.89772 -5.01895 
3414 2 6.03991 2.35257 -5.69591 
297 1 -6.24092 4.052 -4.67427 
2200 1 -6.80975 4.59521 -4.81255 
1224 1 -4.8209 4.17932 -5.45754 
29 1 -5.71227 4.03166 -5.20689 
1725 1 -3.93893 4.66192 -5.05277 
1619 1 -3.29004 4.26876 -6.11074 
2275 1 -4.04795 3.81992 -5.62143 
1772 1 -3.73207 3.70011 -4.76129 
2977 2 -2.78174 3.69985 -5.10093 
2865 2 -2.7483 4.4366 -4.99353 
2326 1 -1.29161 2.74921 -5.05874 
159 1 -1.57785 3.51263 -5.45437 
620 1 -0.73107 3.40251 -4.65752 
3378 2 -0.625492 4.36634 -5.62254 
1763 1 -0.00320043 4.34533 -4.681 
3392 2 -0.793404 5.05289 -5.42749 
225 1 0.982323 4.00004 -5.35508 
295 1 2.02511 4.13067 -5.24798 
268 1 2.76439 3.38381 -5.74183 
504 1 2.43918 3.3209 -4.71391 
1066 1 4.17031 3.13666 -5.9868 
1338 1 3.64018 3.95053 -5.9303 
3433 2 3.5094 3.68736 -4.85753 
1513 1 4.56651 4.18111 -5.36159 
1515 1 4.7161 3.24858 -5.28001 
2917 2 5.53727 3.92578 -5.32981 
3298 2 5.93577 3.12764 -5.43744 
1882 1 6.91754 4.42503 -5.06348 
13 1 -7.0237 3.64752 -5.0152 
2440 1 6.25044 4.36361 -4.45043 
1134 1 -6.01774 5.91342 -4.75029 
1965 1 -6.3382 5.1248 -4.53532 
443 1 -5.70893 4.95378 -5.08866 
59 1 -4.67256 5.07398 -5.30541 
1246 1 -4.6696 6.0567 -5.01166 
1232 1 -3.85896 5.5769 -5.33519 
1691 1 -3.55582 5.05675 -5.8077 
3458 2 -2.9001 5.11535 -4.85135 
2988 2 -2.96783 5.84069 -4.76376 
1652 1 -2.0067 5.38997 -5.76924 
1499 1 -1.90993 5.87709 -4.97051 
3018 2 -0.74794 6.3192 -5.14664 
3207 2 -0.79417 5.81373 -5.77432 
2630 1 0.260885 5.35934 -5.88089 
825 1 -0.0251413 5.3314 -4.8241 
2598 1 0.68431 4.79416 -5.26648 
492 1 1.73733 4.9443 -4.9682 
2392 1 1.09088 5.73652 -4.92352 
372 1 2.61226 5.00083 -5.77943 
486 1 2.31341 5.66373 -5.33336 
2814 2 3.02698 5.35931 -4.43197 
302 1 4.5654 5.11541 -5.7779 
839 1 4.06041 5.48315 -4.87626 
2927 2 5.68287 4.89489 -5.51021 
3257 2 5.27229 5.57429 -5.15565 
2703 1 6.51447 5.62761 -5.65453 
2546 1 6.66428 5.23956 -4.92122 
1939 1 -6.58969 6.51434 -4.55332 
1490 1 -5.82368 6.24273 -6.15214 
2747 2 -7.12683 7.17332 -5.62663 
1872 1 -5.54674 6.42505 -5.22178 
2191 1 -5.92388 7.10546 -5.43974 
278 1 -3.94405 6.50594 -5.17153 
2318 1 -4.89802 6.91725 -4.9695 
1893 1 -3.50606 6.2605 -6.0207 
1394 1 -3.12298 6.93192 -5.76937 
3265 2 -3.0545 6.56899 -4.54789 
945 1 -2.18652 -7.18221 -5.1427 
1577 1 -2.35088 6.51966 -5.51099 
3455 2 -0.82224 7.18288 -5.07408 
2368 1 0.221561 7.11266 -5.36655 
1333 1 0.445718 6.32653 -5.76411 
2096 1 0.293583 6.11084 -5.05385 
1196 1 0.942787 6.75146 -4.8223 
3128 2 1.18883 -6.93263 -5.67187 
2978 2 1.42352 6.75741 -5.77981 
696 1 2.26571 -6.33556 -5.85253 
1382 1 4.04388 6.25352 -5.48922 
1838 1 2.0346 6.35391 -4.9859 
224 1 2.98776 6.3736 -5.57381 
2414 1 4.00879 6.30612 -4.50421 
1992 1 4.5332 5.89579 -6.14294 
2669 1 3.41162 5.64818 -5.53387 
795 1 4.79555 6.6375 -6.03821 
2971 2 5.15378 6.3334 -5.05885 
2539 1 6.53983 6.10759 -4.84158 
355 1 -6.32135 -5.85436 -4.28005 
929 1 -6.89695 -6.34805 -3.47737 
3228 2 -5.79051 -6.26776 -3.44946 
3469 2 -5.57898 -6.88356 -3.79521 
3413 2 -3.3431 -6.30038 -4.40474 
138 1 -4.49255 -6.63672 -3.90257 
772 1 -3.06392 6.98715 -3.23558 
2496 1 -2.69449 -6.61414 -3.31311 
1086 1 -2.1022 -6.63483 -4.43997 
2176 1 -1.93857 -7.04004 -3.73293 
356 1 -1.51558 -6.03385 -3.75839 
2524 1 -0.0971122 -6.88751 -4.21257 
1881 1 -0.876911 -6.74105 -3.64766 
3236 2 0.640612 -7.17672 -3.41049 
635 1 1.63362 -6.29656 -4.57296 
849 1 1.9782 -6.99033 -5.0421 
1211 1 1.81253 -5.3399 -4.50011 
1422 1 1.67642 -6.68965 -3.52986 
3497 2 2.7084 -6.57694 -4.03171 
3303 2 2.57763 -5.79026 -3.81353 
2566 1 3.53217 -6.556 -3.35964 
924 1 3.45941 6.99858 -5.25946 
1442 1 4.45553 -7.14281 -3.68619 
1493 1 6.69718 -5.8483 -3.9941 
60 1 5.70077 -6.50559 -4.01692 
1000 1 -6.74651 -7.16977 -3.83919 
779 1 7.1922 -6.453 -4.17913 
1312 1 -6.75114 -4.64828 -4.33406 
1013 1 -6.85603 -5.30842 -2.91014 
2896 2 -6.00927 -4.74586 -3.42845 
3375 2 -5.64899 -5.4789 -3.51864 
335 1 -6.03859 -4.0506 -4.37938 
1609 1 -4.19661 -5.8626 -4.98692 
1071 1 -5.52045 -4.92015 -4.39866 
3562 2 -3.50993 -5.57909 -4.13173 
3536 2 -3.40091 -4.83077 -4.20135 
401 1 -2.33459 -5.94666 -3.86906 
1629 1 -2.1359 -4.96337 -3.94175 
647 1 -1.40764 -5.0748 -3.44744 
6 1 -0.978243 -4.35112 -2.79262 
2038 1 -0.331021 -6.05481 -4.00863 
2228 1 -0.835939 -5.55987 -3.61137 
1327 1 1.38886 -5.959 -3.74314 
26 1 0.674642 -5.76185 -4.39164 
2918 2 2.56756 -4.99486 -3.69303 
2469 1 3.66628 -6.0149 -4.2843 
451 1 4.42861 -6.21881 -3.52091 
1390 1 3.33147 -5.43375 -3.01168 
2145 1 3.53936 -4.80728 -4.01981 
893 1 4.71856 -5.35059 -3.27852 
2825 2 4.72757 -5.84352 -4.42615 
3340 2 4.6142 -5.07418 -4.42605 
677 1 5.80889 -5.42973 -3.78511 
2462 1 -6.95054 -5.52327 -3.84313 
85 1 5.86696 -5.32229 -4.59923 
1182 1 6.58291 -4.91602 -3.78464 
831 1 -6.66049 -3.85251 -6.01984 
1145 1 7.07384 -3.32461 -3.35219 
1595 1 -6.93839 -3.8721 -3.97256 
392 1 -5.78788 -3.28885 -4.26658 
52 1 -5.06642 -3.14933 -3.50255 
3376 2 -3.61792 -4.22137 -3.85076 
3083 2 -3.9729 -3.49205 -3.74076 
959 1 -2.44932 -4.41965 -4.49692 
322 1 -2.48439 -3.91735 -3.89078 
1251 1 -2.61987 -4.60112 -3.2491 
3285 2 -1.38281 -4.30749 -4.54264 
2916 2 -1.57535 -3.59591 -4.23253 
2052 1 -1.69844 -4.25993 -3.45979 
2626 1 -0.139105 -4.14726 -4.13888 
1747 1 -0.850966 -4.51013 -3.7049 
1945 1 0.57313 -4.83225 -4.25522 
2491 1 0.727743 -3.98983 -3.97691 
1967 1 1.72673 -4.42883 -4.32554 
1799 1 1.17937 -5.06485 -3.76961 
247 1 1.55653 -3.60438 -4.2633 
1863 1 3.47089 -3.89179 -3.52013 
3379 2 2.46327 -4.17502 -3.39662 
3230 2 2.10585 -3.42519 -3.24644 
2857 2 4.47434 -3.57122 -4.11475 
3244 2 4.62605 -4.35527 -4.17131 
1385 1 3.74251 -4.67652 -3.2095 
1526 1 5.55612 -3.37953 -4.3824 
734 1 5.51247 -2.58645 -4.52739 
2336 1 5.75556 -4.42132 -4.44079 
2571 1 -7.15828 -4.57893 -3.42914 
316 1 6.50765 -3.92487 -3.54229 
935 1 -6.32579 -2.16571 -3.99134 
523 1 -6.57245 -3.07431 -4.21846 
1671 1 -4.76675 -3.27676 -4.37959 
2388 1 -5.6326 -2.47015 -3.96195 
1947 1 -4.93534 -2.72703 -2.79293 
3229 2 -3.96445 -2.74725 -3.57357 
1835 1 -4.11655 -1.97175 -4.57432 
1446 1 -2.81336 -2.86187 -3.83796 
904 1 -3.11764 -2.85253 -2.96569 
111 1 -3.06725 -2.09647 -3.84999 
728 1 -0.561303 -3.32749 -4.30574 
15 1 -0.902488 -2.88962 -5.06339 
2766 2 -2.07436 -2.17428 -4.17803 
1028 1 -0.859069 -2.79066 -3.5218 
3198 2 -1.82419 -2.85988 -4.25765 
2241 1 -0.875828 -2.23741 -4.45956 
2044 1 0.249804 -3.07731 -3.87087 
370 1 0.424725 -1.49295 -3.49055 
632 1 1.05729 -2.96294 -3.82326 
27 1 2.40733 -3.20288 -4.41112 
665 1 2.78261 -2.3778 -3.96765 
480 1 3.26965 -2.98998 -3.51184 
2411 1 2.11654 -1.61171 -4.19033 
40 1 2.5355 -4.02805 -4.55492 
3015 2 2.05468 -2.63282 -3.14398 
3353 2 4.32627 -2.76541 -3.96012 
72 1 6.18017 -3.02778 -3.58352 
1658 1 5.08035 -1.68767 -3.5071 
2507 1 6.90143 -2.68021 -2.85308 
844 1 6.2689 -2.17157 -3.3089 
2858 2 6.59931 -2.743 -4.491 
3116 2 6.14716 -1.89027 -4.54077 
2432 1 -7.09952 -2.61609 -3.7597 
1428 1 7.05628 -1.78082 -3.7175 
44 1 -6.33843 -1.35406 -3.79866 
1999 1 -5.73135 -1.01765 -3.04876 
1027 1 -5.41855 -1.57559 -4.05154 
580 1 -3.56171 -0.207213 -3.25334 
3447 2 -4.28503 -2.00619 -3.43983 
2278 1 -4.02273 -0.933418 -4.39274 
2302 1 -3.39659 -1.24368 -3.67558 
2748 2 -2.10852 -1.39594 -4.04134 
2395 1 -1.12564 -1.06561 -4.25239 
2540 1 -0.0765911 -2.30089 -3.50743 
3500 2 -0.323689 -0.645452 -4.45589 
566 1 1.04889 -1.99281 -3.81666 
202 1 0.780755 -0.682079 -3.72757 
922 1 1.23658 -1.15725 -4.2857 
2298 1 1.27617 -1.83565 -4.99755 
169 1 3.43282 -2.06883 -2.81697 
303 1 1.69497 -2.56307 -4.218 
876 1 2.98992 -0.988015 -4.40655 
1700 1 2.82057 -1.54057 -3.32278 
3134 2 4.00239 -1.91625 -3.90963 
2914 2 3.83526 -1.00405 -3.67746 
1911 1 2.36283 -0.876261 -3.77819 
1548 1 4.9035 -1.48153 -4.37044 
234 1 4.46115 -0.398296 -2.8081 
655 1 5.33518 -0.870009 -3.10743 
194 1 -7.15065 -0.982289 -4.21785 
2054 1 6.70343 -0.876612 -3.4048 
2856 2 6.05025 -1.04273 -4.25313 
1841 1 -6.11588 -0.480596 -3.69864 
1514 1 -5.26931 -0.47833 -3.83811 
2132 1 -4.8018 -0.528765 -4.58819 
493 1 -4.79111 0.258969 -4.18716 
1627 1 -5.52945 0.394829 -3.73781 
2578 1 -3.91042 -0.124946 -3.89119 
2605 1 -3.36257 0.468505 -4.27117 
1815 1 -2.71188 -0.0892231 -2.44202 
2687 1 -2.9646 0.679755 -2.42878 
2789 2 -2.38465 -0.538932 -3.7651 
3490 2 -2.4508 0.354043 -3.49301 
2 1 -1.44741 -0.0805267 -4.32126 
1706 1 -1.33982 0.593078 -3.49621 
1266 1 -1.05066 -0.463954 -3.63489 
3555 2 -0.380944 0.158557 -4.19246 
2020 1 0.740559 0.0183997 -4.0969 
2950 2 -0.460049 0.865418 -3.98257 
858 1 0.852179 -0.902707 -4.97353 
886 1 1.56196 -0.241036 -3.90347 
130 1 2.40969 -0.273512 -3.17456 
850 1 3.75417 -0.685703 -4.84442 
3483 2 3.51875 -0.258779 -3.44742 
2068 1 4.00114 0.377192 -4.368 
3305 2 3.37577 0.662623 -3.27203 
873 1 4.78363 0.682993 -4.65108 
1895 1 4.57187 0.19397 -3.58192 
1684 1 -6.88408 -0.34598 -3.6394 
2902 2 5.81753 -0.327097 -4.02068 
2819 2 5.61231 0.360265 -3.94713 
253 1 6.75228 0.238548 -4.12019 
3263 2 -6.5477 1.83333 -4.12465 
510 1 -6.84728 1.22783 -3.24839 
500 1 -5.64089 1.40886 -4.19045 
56 1 -5.89676 1.0204 -3.34562 
2541 1 -4.98509 1.18834 -3.79501 
1793 1 -4.08567 0.749475 -3.81455 
978 1 -3.92492 1.48269 -3.48371 
1002 1 -3.10867 2.15002 -4.42476 
697 1 -3.63218 0.729578 -3.06471 
2177 1 -3.34798 1.41752 -4.35437 
3588 2 -2.74709 1.19422 -3.4886 
2663 1 -1.70588 2.09171 -3.2266 
30 1 -1.6445 1.35563 -3.87218 
2489 1 -0.709961 0.618329 -2.92417 
3196 2 -0.550138 1.62978 -4.04364 
1296 1 0.671658 1.53133 -3.44448 
1195 1 0.549612 1.90391 -4.18421 
2187 1 1.93696 0.569012 -3.75532 
2406 1 0.789295 0.717692 -3.88281 
2237 1 1.46414 1.38255 -3.52239 
2637 1 2.65569 0.989562 -3.96121 
2722 1 2.6667 0.0449054 -4.14384 
2460 1 2.07288 1.16756 -3.11684 
941 1 3.5339 1.2397 -4.26985 
556 1 3.39731 1.97307 -3.95906 
1447 1 4.19151 2.00645 -3.28413 
2021 1 4.7285 1.59731 -4.48963 
3209 2 5.61912 1.18096 -3.76369 
3369 2 5.37558 1.92672 -3.6705 
1520 1 4.28082 1.07276 -3.82046 
499 1 6.89684 0.974348 -4.72217 
462 1 6.21165 1.4489 -4.69592 
3260 2 -7.00652 2.38091 -4.0992 
3033 2 -6.7218 3.05212 -3.90066 
408 1 -5.83627 2.02249 -3.41469 
829 1 -5.67228 2.38513 -4.61278 
412 1 -5.14048 2.0944 -3.99597 
35 1 -5.61062 2.86409 -3.6975 
120 1 -3.75211 2.34967 -3.79098 
3120 2 -2.86724 1.84825 -3.19716 
1091 1 -2.79552 2.78976 -4.13112 
1255 1 -2.1401 2.23797 -3.98138 
1512 1 -1.29441 1.978 -4.7448 
1775 1 -1.77135 3.1286 -4.3545 
1375 1 0.387405 2.87779 -3.68775 
2860 2 -0.628604 2.45866 -3.87801 
3006 2 -0.961352 3.25053 -3.61925 
3063 2 1.5673 2.20767 -4.41236 
3479 2 1.4228 2.92049 -4.39622 
1562 1 1.85888 2.97315 -2.96242 
1644 1 2.32185 1.79082 -3.62373 
613 1 2.39335 2.70246 -3.64704 
840 1 4.3348 2.26542 -4.00328 
1574 1 3.52146 2.9368 -3.95728 