ITEM: TIMESTEP
39000
ITEM: NUMBER OF ATOMS
3594
ITEM: BOX BOUNDS pp pp pp
-7.2029294933599477e+00 7.2029294933599477e+00
-7.2029294933599477e+00 7.2029294933599477e+00
-7.2029294933599477e+00 7.2029294933599477e+00
ITEM: ATOMS id type x y z 
1291 1 -6.41311 -6.64006 -5.93978 
639 1 -6.95203 -6.06148 -6.29701 
1345 1 -5.974 -6.25634 -6.54121 
2582 1 -5.6594 -7.12488 -6.79001 
3477 2 -5.04186 -6.61804 -5.90192 
2546 1 -4.16878 -6.20073 -6.77226 
1490 1 -3.8335 -7.13874 -6.55372 
2944 2 -2.74988 -6.9553 -6.62105 
3574 2 -2.84231 -6.18802 -6.56798 
1747 1 -0.781785 -6.60571 -5.97704 
2083 1 -1.44156 -6.72106 -6.85953 
579 1 -1.78474 -6.14411 -6.11657 
2368 1 0.592348 -6.78261 -6.55086 
3368 2 -0.593292 -6.23035 -7.08063 
1689 1 0.00340189 -6.3302 -6.18741 
1663 1 1.39459 -6.73293 -6.68946 
2599 1 0.752241 -5.94053 -6.90097 
2627 1 1.9797 -6.22726 -6.39113 
2623 1 2.42507 -6.06834 -7.06602 
2048 1 2.40004 -7.11601 -6.06846 
1905 1 2.45639 -6.92452 -6.86014 
3587 2 3.49067 -6.99679 -6.29617 
1530 1 4.4968 -6.44422 -6.32269 
3442 2 3.45616 -6.24821 -6.34923 
2009 1 4.46659 -5.97705 -7.1192 
3208 2 5.45804 -6.16922 -6.71815 
2787 2 5.71336 -7.03632 -6.82887 
1320 1 6.59514 -6.15152 -7.10156 
916 1 6.41484 -6.19393 -6.00972 
1697 1 6.93963 -6.76641 -6.34438 
3495 2 -6.7268 -5.21466 -7.11055 
392 1 -5.18359 -5.84584 -6.96145 
1654 1 -4.59236 -5.16625 -6.43839 
2706 1 -5.79456 -5.26961 -6.43288 
2106 1 -5.71008 -4.88094 -7.132 
2702 1 -4.02691 -5.82419 -5.93239 
2459 1 -3.91831 -5.28401 -7.01556 
2981 2 -2.94737 -5.5172 -6.26554 
3061 2 -3.17216 -4.78536 -6.05082 
1183 1 -2.81457 -4.99267 -7.12951 
3484 2 -0.873102 -4.69186 -6.99819 
786 1 -1.12276 -5.62877 -6.06606 
2439 1 -1.82494 -5.07118 -6.6956 
842 1 -1.57656 -4.77317 -5.92246 
1984 1 -1.69856 -5.8801 -6.96919 
3019 2 -0.586567 -5.45889 -6.96629 
2453 1 0.317334 -5.39118 -6.4396 
632 1 -0.190769 -4.91115 -5.98452 
1836 1 1.53643 -5.57873 -6.40055 
774 1 1.03056 -4.96124 -6.418 
1734 1 2.25709 -5.26498 -6.66162 
2957 2 3.25775 -5.57802 -6.06724 
248 1 4.48158 -5.49914 -6.3202 
2415 1 3.97824 -5.25135 -7.04289 
2256 1 4.02702 -4.6652 -6.10218 
2812 2 5.4977 -5.31958 -6.52296 
274 1 6.38731 -5.21916 -6.94939 
2500 1 6.85228 -5.42815 -6.21888 
153 1 6.25385 -4.75394 -5.95705 
2975 2 -6.97954 -3.58761 -6.92785 
3029 2 -6.81351 -4.47104 -6.9239 
335 1 -6.22459 -4.47757 -5.994 
1020 1 -5.33292 -4.48499 -6.39641 
1477 1 -4.64713 -4.01024 -6.27327 
2535 1 -5.70708 -3.91592 -6.63122 
1835 1 -3.90172 -3.50333 -6.70681 
2321 1 -3.98845 -4.49036 -6.63941 
139 1 -2.94977 -4.03197 -7.01396 
2549 1 -2.13505 -4.40026 -6.44072 
2057 1 -2.42335 -3.49073 -6.27873 
2808 2 -1.05446 -3.98395 -6.63114 
1333 1 0.260985 -4.38396 -6.87688 
607 1 0.0656404 -3.29401 -6.60822 
2631 1 -0.0449247 -4.15422 -6.16775 
1587 1 1.91038 -4.48716 -6.35818 
1050 1 1.05943 -4.16131 -6.24063 
2709 1 1.85549 -3.5593 -6.36489 
250 1 0.694542 -3.31785 -5.91645 
329 1 3.26414 -4.34048 -6.90825 
619 1 2.46725 -4.31676 -7.0654 
1418 1 2.82611 -3.55008 -6.74423 
190 1 3.75015 -3.6142 -6.3196 
847 1 4.05885 -4.29712 -6.88735 
3212 2 5.30441 -4.55157 -6.67283 
3266 2 4.88962 -4.05801 -6.24615 
2767 2 5.18069 -3.41647 -6.36757 
1597 1 6.50716 -4.27212 -6.72327 
2306 1 6.18955 -3.43927 -6.61113 
1445 1 -6.60673 -2.53257 -5.92554 
88 1 -6.21754 -2.50969 -7.00109 
1640 1 -5.07444 -3.24077 -6.12598 
2661 1 -5.85284 -3.15332 -6.26602 
477 1 -5.68057 -2.30794 -6.13482 
2892 2 -5.19108 -2.12465 -7.06287 
2866 2 -5.00701 -2.89074 -7.18705 
2320 1 -4.3531 -2.73751 -6.52281 
743 1 -3.64246 -2.37559 -6.77422 
2381 1 -3.00267 -2.9737 -7.0785 
911 1 -2.64996 -2.66279 -6.32533 
1474 1 -2.61701 -1.99893 -6.01415 
2397 1 -2.149 -2.85479 -7.09744 
3332 2 -1.18304 -3.11138 -6.49509 
3234 2 -1.556 -2.42818 -6.24795 
2042 1 -0.369086 -2.50992 -6.95647 
628 1 1.70113 -2.07675 -6.21162 
3347 2 0.992546 -3.10791 -7.09834 
2804 2 0.675082 -2.34003 -7.12574 
151 1 1.74816 -2.07593 -7.13012 
541 1 1.54135 -2.85575 -6.01345 
483 1 2.25236 -2.84204 -6.89303 
2628 1 2.90585 -2.62899 -6.42602 
2645 1 3.66696 -2.1137 -6.50648 
42 1 4.27956 -2.53928 -7.06079 
303 1 3.6753 -2.99692 -6.78917 
3550 2 4.88798 -2.65371 -6.08643 
2510 1 5.79463 -2.16114 -6.26415 
1834 1 5.14831 -2.51489 -7.15148 
304 1 5.93533 -2.58108 -6.93104 
3126 2 7.18136 -2.84476 -6.80664 
2074 1 6.34659 -2.8981 -5.97132 
3087 2 6.90437 -2.16365 -6.52146 
2114 1 -6.44545 -1.75974 -6.68745 
90 1 -6.45324 -1.03661 -6.26376 
3360 2 -5.35051 -1.39058 -6.95054 
56 1 -4.70669 -0.906728 -6.22642 
18 1 -4.44826 -1.74705 -6.41946 
1722 1 -4.32263 -0.798495 -7.0249 
1928 1 -3.69893 -1.36601 -6.66555 
965 1 -3.02793 -1.93164 -6.81281 
1635 1 -2.84076 -1.1643 -6.09163 
667 1 -2.39525 -1.11344 -6.87401 
3105 2 -1.55461 -1.65068 -6.16157 
1374 1 -0.684416 -1.65545 -6.60393 
1828 1 -1.06854 -0.68438 -6.98116 
3088 2 0.415748 -0.80204 -6.57161 
3151 2 0.372874 -1.54996 -6.84064 
1745 1 -0.599943 -0.74196 -6.22296 
2520 1 1.18149 -1.49986 -5.96739 
2600 1 1.60326 -0.812678 -6.17192 
919 1 1.54653 -1.12204 -6.86674 
1859 1 2.44307 -1.72871 -6.29894 
388 1 3.11967 -1.21761 -6.14724 
1648 1 3.68801 -1.26793 -6.71278 
2972 2 4.54075 -1.87837 -6.02339 
556 1 5.65801 -1.25661 -6.11382 
453 1 4.68194 -1.43298 -6.90968 
2072 1 5.3899 -1.75434 -6.91748 
2180 1 5.79191 -1.09591 -7.11658 
2840 2 6.70357 -1.46236 -6.21108 
2797 2 6.82061 -0.792819 -6.4406 
2353 1 -6.73714 -0.606806 -7.05236 
519 1 -6.7723 0.304128 -6.63243 
385 1 -6.76164 -0.212239 -6.00159 
2605 1 -5.96501 -0.554792 -5.91834 
3097 2 -5.56087 -0.624551 -7.01675 
3127 2 -5.76352 0.107497 -6.88599 
1224 1 -5.10471 -0.165911 -5.93498 
1001 1 -3.84955 0.374206 -6.21814 
2699 1 -4.5566 0.00721295 -6.63943 
323 1 -2.34332 -0.307998 -6.95855 
964 1 -2.65289 0.436644 -6.57438 
1112 1 -3.24746 -0.390957 -6.37952 
2081 1 -1.64141 -0.00574044 -6.85862 
994 1 -0.856057 0.124255 -6.4203 
3311 2 0.332413 -0.0649805 -6.64703 
2708 1 1.38435 -0.230344 -7.18549 
1695 1 1.45096 0.00504214 -6.44848 
2150 1 2.95876 0.20608 -5.95435 
296 1 2.43129 -0.611979 -6.19391 
941 1 2.25248 0.340913 -6.02773 
2960 2 2.46676 0.364015 -7.20248 
1085 1 3.329 -0.221616 -6.49973 
1034 1 3.68767 0.630759 -6.94222 
970 1 4.47498 0.245556 -6.90298 
1824 1 4.08284 -0.497264 -7.09174 
1362 1 4.94782 -0.52467 -6.9047 
1414 1 5.67963 -0.144942 -7.09458 
2380 1 5.45356 -0.427799 -6.05789 
2276 1 5.17122 0.472902 -6.43361 
3135 2 6.50205 -0.0686442 -6.32891 
115 1 -7.05925 1.36702 -6.5374 
3007 2 -5.98319 0.895453 -6.90318 
3140 2 -6.13866 1.68062 -6.62315 
2386 1 -7.17913 1.92857 -7.1441 
415 1 -4.75077 0.699984 -7.14721 
1233 1 -4.92798 1.56507 -7.03493 
408 1 -4.96873 0.754645 -6.22001 
1335 1 -5.19005 1.60359 -5.9116 
433 1 -4.16878 1.17736 -6.38823 
1336 1 -3.54094 1.91835 -6.17561 
3148 2 -3.90041 1.71862 -7.19126 
1446 1 -3.13992 0.903548 -6.03183 
883 1 -2.12371 1.78606 -7.00087 
83 1 -2.97155 1.44715 -6.70067 
343 1 -1.90197 1.04059 -6.94253 
1370 1 -1.07599 1.67697 -7.14672 
1661 1 -1.14186 0.874244 -6.63135 
1265 1 -1.2342 1.78967 -6.12544 
2928 2 0.158098 0.790879 -6.52859 
3078 2 0.0589882 1.58567 -6.39422 
583 1 1.17607 0.854708 -7.01928 
1817 1 1.13972 1.78393 -6.65891 
110 1 1.44129 0.968999 -6.30179 
1368 1 1.62687 1.9482 -5.97473 
3459 2 2.3907 1.13885 -7.12209 
3393 2 2.0884 1.86611 -7.04983 
1876 1 3.16427 1.08191 -6.32506 
312 1 2.91782 1.92429 -6.05571 
1176 1 2.19196 1.2202 -5.94813 
366 1 4.24579 1.24733 -6.85347 
2068 1 3.63418 1.84042 -6.69439 
795 1 5.12489 1.30175 -6.63882 
404 1 5.79822 0.81832 -7.06373 
3038 2 6.36759 0.798986 -6.07643 
2151 1 6.31166 1.65468 -7.11993 
3060 2 6.14491 1.55331 -5.95075 
1185 1 6.95036 0.881758 -7.18481 
3465 2 -6.14284 2.42421 -6.62478 
2736 2 -6.36357 3.22289 -6.3364 
1232 1 -4.94583 2.50202 -6.72323 
822 1 -5.28353 3.13023 -6.2141 
1353 1 -4.49285 2.14245 -6.02129 
2275 1 -2.95424 2.22106 -7.04277 
1517 1 -2.17669 2.55878 -6.71951 
1772 1 -3.19243 2.62163 -6.19486 
2576 1 -2.88514 3.12968 -7.03988 
1255 1 -1.34707 2.43537 -6.74888 
3444 2 -0.264675 2.22724 -6.39452 
2813 2 -0.111895 2.91578 -6.02726 
2285 1 0.161218 3.12027 -7.10918 
2463 1 1.14379 2.79688 -6.02129 
693 1 0.770757 2.45928 -6.93165 
3417 2 2.00601 2.66386 -6.80256 
1113 1 2.83939 3.27143 -6.94627 
1068 1 2.9919 2.79296 -6.10559 
2086 1 3.76503 2.81275 -6.28209 
805 1 4.58845 2.0145 -6.33257 
284 1 5.08744 2.91352 -6.54379 
339 1 5.57362 2.045 -6.89337 
2061 1 7.20217 3.00814 -7.01777 
2597 1 6.11266 2.72544 -6.96374 
2707 1 6.62214 3.25736 -6.23996 
2685 1 6.88132 2.39755 -6.45891 
3238 2 -6.54606 4.10018 -6.12533 
2519 1 -5.81449 4.25337 -6.85073 
536 1 -5.48362 3.54205 -7.05109 
829 1 -5.36951 4.20684 -6.01626 
2783 2 -4.12885 3.382 -6.78141 
3408 2 -4.43579 4.05498 -6.6354 
2318 1 -3.3833 4.58225 -6.16563 
353 1 -3.01403 3.74463 -6.3666 
1394 1 -2.08347 3.35233 -6.41739 
1881 1 -2.2481 4.17565 -6.29061 
920 1 -1.1505 3.36467 -6.55541 
175 1 -1.24385 4.36588 -6.39099 
2401 1 -0.839386 4.55639 -7.12961 
1933 1 -0.29996 3.88934 -6.89049 
597 1 0.529119 4.35611 -6.82302 
1773 1 1.10561 3.2978 -7.18465 
3478 2 1.87042 3.62726 -6.43932 
3466 2 1.72543 4.41936 -6.31426 
430 1 0.721776 3.53554 -6.345 
839 1 2.77582 4.42565 -6.6926 
2483 1 3.31198 3.78114 -6.27693 
3551 2 4.17334 3.9634 -7.0015 
2530 1 4.79197 3.71695 -6.24653 
862 1 5.73535 3.46542 -6.63516 
760 1 5.42411 4.36531 -6.61164 
2594 1 7.14086 3.91834 -6.99036 
213 1 6.50223 4.12715 -6.57212 
3045 2 -6.6708 4.84697 -6.07813 
292 1 -6.24366 5.59345 -6.89185 
2045 1 -5.56003 5.08512 -6.64643 
1845 1 -5.3581 5.17658 -5.98351 
3411 2 -4.30899 4.82539 -6.82158 
3471 2 -4.36827 5.51528 -6.44508 
912 1 -2.50618 5.01533 -6.15994 
1012 1 -2.94798 4.66795 -6.78373 
223 1 -3.20631 5.57494 -6.60326 
2524 1 -1.68618 5.05635 -6.1137 
225 1 -1.01784 5.48711 -6.78287 
1767 1 -0.140884 4.89272 -6.725 
1889 1 0.0763258 5.69566 -6.63804 
1924 1 0.552979 5.08453 -6.04088 
3138 2 1.63993 5.22339 -6.11661 
2675 1 0.958103 5.82737 -6.77483 
1338 1 1.04184 5.11717 -7.17695 
215 1 1.8639 5.76017 -7.11924 
703 1 2.79754 4.65939 -5.9427 
474 1 2.54105 5.27865 -6.83603 
96 1 2.87422 5.48439 -5.95698 
3223 2 3.85794 4.68847 -6.80979 
3215 2 3.74175 5.41711 -6.78408 
2711 1 4.63333 4.78243 -6.13002 
2678 1 5.11641 5.36241 -6.14618 
1970 1 5.12505 5.01107 -7.06005 
1896 1 4.79241 5.86987 -6.92177 
1321 1 7.1173 4.77183 -6.87129 
2142 1 5.92263 5.37854 -6.20812 
1410 1 6.87339 5.65308 -6.63046 
1667 1 6.5454 4.92356 -6.20886 
1616 1 -6.67948 7.08336 -6.425 
491 1 -6.06704 6.66265 -6.33031 
1727 1 -6.82909 6.13532 -6.73969 
297 1 -5.56897 5.98384 -6.73224 
3463 2 -4.70874 6.37391 -6.32404 
3150 2 -4.89866 7.05562 -6.04161 
2342 1 -3.61774 6.46539 -6.66576 
3268 2 -2.5915 6.6951 -6.79137 
3454 2 -2.16141 6.0262 -6.98633 
601 1 -3.22209 6.29203 -6.01803 
245 1 -0.863197 7.02534 -6.18638 
1308 1 -1.71617 7.07277 -6.02682 
1346 1 -1.52815 6.14821 -6.17812 
1893 1 -1.18506 6.23014 -7.09296 
1521 1 0.637918 6.7102 -6.75008 
1639 1 -0.508236 6.32577 -6.50219 
2630 1 0.0407971 6.95614 -6.11997 
586 1 0.44556 6.19654 -5.93622 
2899 2 1.5014 6.80121 -5.91763 
2024 1 1.65244 6.73642 -6.91935 
255 1 2.55391 6.20299 -6.41885 
2212 1 2.45464 6.77225 -7.15946 
3569 2 3.48158 6.6553 -6.43581 
2790 2 3.94553 6.08716 -6.27238 
1311 1 4.74393 7.12377 -6.65348 
302 1 5.20715 6.30762 -6.20227 
3539 2 5.80771 6.43592 -7.0897 
522 1 6.80032 6.65341 -6.38812 
2200 1 7.10386 6.98185 -7.09341 
13 1 6.1718 7.17145 -5.89379 
695 1 -6.18156 -5.94065 -5.33983 
2462 1 -5.94465 -6.70181 -5.06487 
1184 1 -5.05913 -6.87737 -4.66828 
833 1 -3.92084 -6.73149 -5.68981 
278 1 -4.2271 -6.77837 -4.90457 
2176 1 -4.31618 -5.93183 -4.84808 
1149 1 -3.49492 -5.90498 -5.22026 
197 1 -2.09629 -6.7504 -5.53575 
1567 1 -2.56473 -6.02565 -5.23315 
1435 1 -2.07128 -6.73606 -4.70608 
1643 1 -2.97203 -6.57892 -5.54061 
3322 2 -1.14397 -6.04564 -5.03155 
3594 2 -0.939208 -6.80587 -4.94745 
1093 1 0.0670923 -6.978 -5.44711 
1107 1 0.580982 -6.87428 -4.58475 
2491 1 -0.0659082 -6.21889 -5.06802 
2978 2 1.2522 -6.95354 -5.58571 
3128 2 0.984674 -6.26494 -5.55571 
2096 1 1.73766 -6.21757 -4.66129 
949 1 2.45007 -6.30492 -5.75077 
1211 1 3.07919 -6.44959 -5.03946 
799 1 2.32067 -7.04104 -4.86147 
1882 1 4.31456 -7.01016 -5.67992 
1442 1 3.82234 -6.67596 -5.0893 
1985 1 5.1692 -7.15432 -5.76349 
924 1 4.95072 -6.40837 -5.55598 
893 1 5.78433 -6.26363 -5.47481 
589 1 6.14379 -6.21563 -4.6846 
3487 2 7.1548 -6.3718 -5.15485 
610 1 6.14369 -7.00753 -5.01507 
1263 1 -6.50352 -5.16317 -5.78197 
1851 1 -6.25062 -5.65268 -4.60749 
316 1 -6.22885 -4.92821 -4.99797 
3520 2 -5.08008 -5.74332 -5.58564 
3416 2 -5.31693 -4.9847 -5.40092 
472 1 -5.41764 -5.8013 -4.58395 
959 1 -3.88834 -5.00804 -5.09209 
2516 1 -4.2942 -4.62395 -5.81787 
2002 1 -2.98119 -5.30594 -4.87452 
1506 1 -2.53256 -4.66894 -4.59118 
897 1 -2.17583 -5.37331 -5.62534 
3480 2 -1.41135 -5.44542 -4.73965 
1127 1 -0.835233 -4.69817 -5.40064 
2626 1 -0.372961 -5.62528 -5.7819 
1931 1 -0.265343 -5.17398 -4.92479 
1837 1 1.96399 -5.10882 -4.62398 
2826 2 0.832982 -5.62254 -5.36606 
3068 2 0.7801 -4.75166 -5.22448 
1385 1 1.96158 -5.37551 -5.57333 
811 1 2.46892 -5.6559 -4.92276 
1234 1 2.88235 -4.95314 -4.74255 
2933 2 2.98824 -4.86773 -5.86214 
1945 1 3.41347 -5.66777 -4.73024 
2469 1 4.21124 -5.79281 -5.37177 
1425 1 3.82379 -4.88343 -5.11873 
1416 1 4.71289 -4.80441 -5.47329 
779 1 5.29431 -5.55278 -5.40729 
2828 2 7.10105 -5.60059 -5.10274 
3010 2 7.06474 -4.88929 -4.83548 
72 1 5.98095 -5.37871 -4.70041 
2015 1 6.05907 -5.36375 -5.48804 
572 1 -6.6218 -3.75386 -5.82368 
2670 1 -6.65224 -4.17576 -5.1335 
3325 2 -5.43251 -4.11784 -5.30932 
2912 2 -5.70986 -3.3751 -5.14343 
1671 1 -3.78604 -3.45704 -4.605 
1979 1 -4.45105 -3.37597 -5.38541 
977 1 -4.08076 -4.1467 -5.16212 
3041 2 -3.1977 -4.00325 -5.67514 
386 1 -2.19944 -4.44772 -5.48293 
1629 1 -2.64248 -3.73349 -4.89426 
484 1 -1.6591 -3.72736 -5.64165 
2105 1 -0.747094 -3.56374 -4.59695 
2263 1 -0.601997 -3.96098 -5.42695 
3227 2 0.264595 -3.34306 -4.89964 
2768 2 0.571113 -4.06298 -5.15249 
2537 1 1.87295 -4.48781 -5.45243 
1313 1 1.60522 -3.49401 -5.32816 
19 1 2.23285 -4.09764 -4.73186 
3249 2 2.87613 -4.0697 -5.62155 
26 1 4.20797 -4.09083 -5.50462 
2558 1 3.61554 -3.9664 -4.89109 
2539 1 5.1509 -3.74785 -5.04534 
452 1 5.55125 -4.5461 -5.341 
1322 1 5.88284 -3.88599 -5.83591 
2727 1 7.07213 -4.53349 -5.87778 
2101 1 6.84956 -3.68447 -5.83243 
3173 2 6.43097 -3.76419 -4.78266 
2612 1 -7.01348 -3.11059 -5.39859 
2737 2 -6.0746 -2.71981 -4.85593 
1006 1 -6.97612 -3.21586 -4.67991 
2890 2 -5.59081 -2.27618 -4.98858 
2480 1 -4.86077 -2.48006 -5.74278 
2869 2 -3.46579 -3.25441 -5.73188 
1285 1 -4.55721 -2.70978 -4.91384 
2844 2 -3.65771 -2.38367 -5.69519 
2262 1 -2.1365 -3.00375 -5.49747 
594 1 -2.69611 -2.37771 -5.14791 
1087 1 -1.27808 -3.1001 -5.153 
527 1 -0.785486 -2.05976 -5.36606 
858 1 -1.68161 -2.26857 -5.25537 
3430 2 0.17282 -2.55275 -4.66078 
922 1 -0.40948 -3.14046 -5.61709 
2013 1 -0.183808 -2.35873 -5.88033 
502 1 0.717089 -2.51419 -5.84703 
840 1 1.26975 -2.63931 -5.19793 
3014 2 2.68772 -3.15152 -5.51942 
2830 2 2.48233 -2.40012 -5.31615 
1415 1 4.26457 -3.1899 -5.18778 
850 1 3.78019 -2.86501 -5.81799 
27 1 3.28849 -2.23041 -4.62925 
1215 1 3.40311 -3.1049 -4.77169 
85 1 4.01419 -2.2529 -5.12228 
346 1 5.6868 -3.07798 -5.43187 
1987 1 5.69341 -2.01157 -5.49338 
873 1 5.07959 -2.37014 -5.08356 
2721 1 7.18352 -2.27696 -5.14157 
148 1 6.35791 -2.44828 -5.43645 
41 1 -6.38012 -1.78219 -5.86328 
2360 1 -6.98539 -1.42398 -5.56881 
2974 2 -6.15195 -1.77972 -4.86632 
2993 2 -6.29559 -0.922256 -4.82079 
874 1 -4.90705 -1.70546 -5.74126 
1781 1 -5.58686 -1.32054 -5.82404 
1316 1 -4.88842 -1.31174 -4.77356 
3543 2 -3.7777 -1.59526 -5.57558 
3256 2 -4.00338 -0.766407 -5.47654 
913 1 -2.21486 -1.37917 -5.11765 
2465 1 -3.03993 -1.62825 -4.81965 
3200 2 -1.7169 -0.902032 -5.838 
460 1 -1.31856 -1.4374 -4.83612 
1195 1 -1.01373 -0.662162 -5.08888 
154 1 -0.37181 -1.37219 -5.58932 
400 1 0.397777 -1.59144 -5.6721 
3354 2 0.165046 -1.79658 -4.69203 
1489 1 0.112608 -0.668497 -5.41159 
1644 1 1.25007 -1.82865 -5.16458 
1897 1 1.10805 -1.10194 -4.72432 
2390 1 0.9425 -0.818413 -5.48289 
3356 2 2.26821 -1.66372 -5.20383 
3557 2 2.46044 -0.982459 -5.23482 
40 1 3.41235 -1.93935 -5.65752 
656 1 3.53345 -1.03814 -5.4233 
2995 2 4.5555 -1.10011 -5.8556 
1527 1 4.5818 -1.79894 -4.76036 
1911 1 3.49543 -1.41542 -4.59695 
1830 1 4.45483 -1.01734 -4.64727 
734 1 5.27912 -1.25547 -4.961 
2617 1 6.33101 -1.49807 -5.27921 
1927 1 6.88623 -0.657976 -5.20457 
1369 1 5.94326 -0.691358 -5.40718 
1483 1 7.0344 -1.38407 -4.7731 
3267 2 -6.36203 -0.211649 -4.95154 
3186 2 -6.4168 0.529407 -4.67028 
668 1 -5.92568 0.446101 -5.82867 
670 1 -5.38161 0.344634 -5.16972 
1953 1 -5.22843 -0.59724 -5.10544 
3144 2 -4.07304 -0.0113612 -5.25067 
174 1 -2.83432 -0.62135 -5.25379 
2589 1 -2.05753 -0.501652 -4.75982 
596 1 -2.95451 0.115819 -5.72271 
640 1 -2.50998 0.281654 -4.73987 
2796 2 -1.8165 -0.0633717 -5.75342 
1623 1 -0.923082 0.229284 -5.13086 
2712 1 0.397795 0.177879 -5.28467 
1971 1 -0.382618 -0.0323951 -5.65441 
308 1 0.680121 -0.357544 -4.64506 
76 1 1.081 0.226046 -5.75742 
3383 2 1.9069 0.311896 -4.95776 
3449 2 1.97442 -0.464177 -5.03341 
130 1 3.10869 -0.20811 -5.18134 
891 1 3.77992 -0.452273 -4.63095 
3317 2 4.2515 -0.231864 -5.86107 
2848 2 4.11466 0.471757 -5.81762 
1788 1 4.4206 0.254141 -4.76864 
167 1 3.41285 0.371056 -4.73205 
1472 1 5.10234 -0.283062 -5.02767 
499 1 5.44478 0.281982 -5.48906 
1207 1 7.09142 0.257847 -5.23419 
34 1 6.27168 0.302339 -5.18301 
817 1 -7.08612 1.90437 -5.83407 
1607 1 -6.81471 0.777152 -5.83201 
1514 1 -6.3341 1.3621 -5.50052 
2037 1 -5.4522 1.32294 -5.05956 
2861 2 -4.37211 0.763867 -5.22897 
1512 1 -3.29028 1.60286 -5.31589 
3062 2 -4.29186 1.67348 -5.10629 
2466 1 -3.21733 0.768229 -5.07509 
2846 2 -2.16644 1.46893 -5.72066 
1198 1 -2.52647 1.1675 -4.68682 
2939 2 -1.89633 0.770263 -5.69075 
287 1 -0.772867 0.983892 -5.60468 
159 1 -1.00065 1.91747 -5.2565 
1894 1 -1.15465 1.14016 -4.80607 
603 1 0.0670898 1.03959 -5.36407 
2673 1 0.543722 1.64535 -4.60618 
46 1 -0.165809 1.80693 -5.12786 
2730 1 0.761922 1.18693 -5.72845 
3241 2 1.48425 1.95767 -4.74646 
3443 2 1.66852 1.091 -4.97928 
1524 1 2.93823 0.823496 -5.39801 
851 1 2.66708 1.72248 -5.20164 
3364 2 3.919 1.2001 -5.62858 
3388 2 3.78724 1.86306 -5.32181 
1883 1 5.07702 0.998821 -5.73973 
50 1 5.14643 0.832733 -4.90277 
723 1 6.88185 1.15237 -5.12599 
1282 1 6.03918 1.16967 -4.85963 
1331 1 -7.12546 2.82352 -5.65989 
2578 1 -6.23441 2.2389 -5.16085 
131 1 -6.55722 3.1028 -5.02018 
1238 1 -5.48419 2.49539 -5.56301 
3456 2 -4.79627 3.1499 -4.76921 
2560 1 -4.19325 2.92663 -5.72161 
2845 2 -4.37481 2.39818 -4.80211 
803 1 -3.38877 2.58982 -5.13257 
3117 2 -2.32845 2.31012 -5.69202 
2945 2 -2.43358 3.04788 -5.46638 
330 1 -1.30578 2.69605 -5.82501 
1484 1 -1.82531 2.02475 -4.7934 
673 1 -0.834377 2.83754 -5.16176 
1257 1 -1.66466 3.02939 -4.74701 
620 1 0.149817 2.67726 -4.85071 
823 1 0.677416 2.06194 -5.53838 
1978 1 1.73392 3.12745 -5.54293 
23 1 2.357 2.97237 -4.71354 
2575 1 2.25278 2.39951 -5.5168 
3433 2 3.59666 2.52984 -5.17812 
194 1 4.93477 1.99479 -5.60767 
2147 1 5.47795 1.96562 -4.8716 
3298 2 5.78826 2.92568 -5.54719 
2433 1 4.65929 2.48065 -4.5974 
82 1 4.61238 2.79318 -5.64795 
1684 1 6.80691 2.2431 -5.17322 
3414 2 5.91078 2.26287 -5.85728 
2317 1 6.49494 2.9133 -4.73358 
1229 1 -6.19571 3.76268 -5.03484 
2297 1 -6.99409 4.29009 -4.9205 
1691 1 -4.6177 3.57343 -5.68951 
35 1 -5.51241 3.43085 -5.44377 
2885 2 -4.95811 3.95644 -4.7265 
59 1 -3.97156 4.44549 -5.67983 
1344 1 -3.53513 3.5557 -5.69814 
992 1 -3.75977 3.85743 -4.9417 
2977 2 -2.59564 3.75003 -5.25678 
2865 2 -2.77484 4.46548 -5.23444 
686 1 -1.47137 3.65867 -5.714 
1638 1 -1.01582 3.69478 -4.90807 
3378 2 -0.322877 3.75901 -5.83918 
867 1 -0.019837 3.60234 -4.64465 
3392 2 -0.491336 4.57037 -5.77323 
1505 1 0.379263 4.25681 -5.07753 
324 1 0.856573 4.16496 -5.766 
2542 1 0.767522 3.32482 -5.27893 
371 1 1.55036 3.90311 -5.28168 
1677 1 2.64562 3.5186 -5.63467 
1066 1 2.36949 4.32599 -5.3844 
2814 2 3.26935 4.13229 -4.77919 
1923 1 2.17912 3.92217 -4.72599 
377 1 4.05099 3.60058 -5.86771 
16 1 3.67828 4.49977 -5.73862 
2894 2 3.38839 3.35406 -4.96704 
221 1 4.39441 4.23416 -5.24608 
1513 1 4.5456 3.3724 -4.94221 
2917 2 5.52541 3.65721 -5.50024 
2927 2 5.55702 4.38502 -5.56792 
1200 1 6.66694 4.14962 -5.61745 
1169 1 7.01594 3.52736 -5.31104 
3147 2 -6.8325 5.54721 -5.82792 
29 1 -6.13862 5.48648 -4.87866 
1899 1 -7.10272 5.18362 -4.69148 
443 1 -5.86229 4.71152 -5.32587 
561 1 -4.78561 4.70261 -5.5917 
942 1 -5.2254 5.80233 -5.36848 
587 1 -4.29669 5.37925 -5.38459 
507 1 -3.43668 5.53425 -5.68149 
1481 1 -4.04711 5.76822 -4.70206 
754 1 -3.93112 4.81392 -4.92378 
3458 2 -2.74517 5.2571 -4.98039 
2988 2 -2.80707 5.87949 -4.7413 
448 1 -0.905811 4.62995 -4.70254 
341 1 -1.71692 5.53568 -5.36936 
2603 1 -1.6134 4.70073 -5.27014 
3207 2 -0.424298 5.296 -5.51324 
2208 1 0.223322 5.19722 -4.7307 
301 1 0.914482 4.82187 -5.20831 
84 1 1.71238 4.76361 -5.0089 
1261 1 1.87499 5.58153 -4.68168 
1848 1 1.26451 5.8929 -4.91859 
2392 1 0.74373 5.58156 -5.42609 
899 1 2.34989 5.26225 -5.27588 
2379 1 3.52558 5.45072 -5.32808 
1515 1 4.44809 4.95979 -4.93244 
2088 1 4.42248 5.45508 -5.58735 
3257 2 5.53133 5.06952 -5.15155 
2971 2 5.37885 5.8798 -5.05104 
440 1 6.50294 4.66713 -4.63863 
1341 1 6.67344 5.27541 -5.37519 
558 1 -5.96946 7.06339 -5.61478 
3330 2 -7.02256 6.36807 -5.57967 
1872 1 -5.91266 6.04557 -5.86602 
698 1 -6.29898 7.07434 -4.58393 
2473 1 -6.2148 6.28953 -4.81414 
2033 1 -5.4763 6.65531 -5.07313 
1733 1 -4.64116 6.746 -5.00807 
1235 1 -3.53354 6.94166 -5.62235 
1391 1 -4.11136 6.30573 -5.42034 
2635 1 -2.44211 5.9596 -5.80269 
2446 1 -2.52758 6.87559 -5.63251 
3265 2 -3.10588 6.73215 -4.76129 
1499 1 -1.93801 6.51334 -5.17187 
3455 2 -0.791446 6.61318 -5.0121 
3018 2 -0.591749 5.99304 -5.41744 
2669 1 0.512208 6.75072 -5.02188 
172 1 0.360799 6.0036 -4.72429 
2831 2 1.69764 6.01943 -5.82133 
2429 1 1.2836 6.79537 -4.7115 
696 1 2.66601 6.02178 -5.32891 
849 1 2.08414 6.58925 -4.9342 
1935 1 2.77534 6.80864 -5.53091 
2305 1 3.89899 6.18766 -5.10945 
798 1 3.42401 6.89105 -5.16145 
244 1 4.3865 6.02299 -4.63584 
189 1 4.63404 6.51317 -5.6134 
2926 2 5.35396 6.73799 -4.84229 
2747 2 7.19137 7.14852 -5.41233 
1871 1 6.57664 6.67469 -4.62692 
1965 1 6.09269 6.10498 -5.86097 
1399 1 6.36873 6.05794 -5.08296 
2533 1 -6.563 -6.41396 -4.35195 
1013 1 -6.65258 -6.71533 -3.50948 
3228 2 -5.60995 -6.76755 -3.83674 
3375 2 -5.73306 -6.08093 -3.48782 
1406 1 -4.39856 -6.23658 -4.03331 
2248 1 -4.29217 -7.10665 -3.94157 
427 1 -2.29841 -6.0152 -4.35361 
3413 2 -3.26149 -6.37231 -4.11727 
2835 2 -3.11946 -7.03521 -4.44325 
2496 1 -1.91149 -6.53087 -3.7812 
1327 1 -1.12023 -6.86428 -3.85803 
1585 1 -0.635544 -6.14434 -3.67981 
486 1 -0.238071 -6.81536 -4.09632 
15 1 0.48396 -5.99343 -4.44648 
3056 2 0.742812 -6.66709 -3.38755 
224 1 1.4199 -6.84296 -4.30309 
2238 1 1.83566 -6.56159 -3.53013 
3303 2 3.09596 -7.1478 -4.17329 
2918 2 2.93265 -6.39352 -3.92723 
2136 1 4.19504 -6.77971 -3.62616 
2566 1 3.98393 -6.22795 -4.41492 
1019 1 4.39807 -6.04723 -3.43222 
3290 2 4.92379 -7.12799 -4.56933 
2825 2 5.14569 -6.39266 -4.49565 
997 1 5.84002 -6.33687 -3.70195 
2703 1 5.08968 -6.8143 -3.40805 
1000 1 6.26259 -6.99425 -4.03056 
1461 1 6.90658 -6.63375 -4.13009 
2507 1 -6.67812 -5.61427 -3.89521 
844 1 -6.68711 -4.81435 -3.92644 
523 1 -4.73236 -4.93997 -4.52426 
1994 1 -5.61738 -5.04203 -4.24857 
1187 1 -4.75298 -5.56559 -4.08832 
843 1 -4.81 -5.00743 -3.50146 
3562 2 -3.5814 -5.61317 -4.02594 
3536 2 -3.76735 -4.85979 -3.80153 
314 1 -2.32622 -5.20076 -3.972 
3285 2 -1.58901 -4.70045 -4.49674 
127 1 -1.42117 -5.88328 -3.70185 
1846 1 -1.63467 -5.02127 -3.47123 
2038 1 -0.718528 -5.19805 -3.77515 
2052 1 -0.349581 -5.73441 -4.30917 
1799 1 0.277243 -5.10489 -4.17058 
1538 1 1.30891 -5.58164 -4.50192 
2632 1 1.0654 -4.8627 -3.86466 
1683 1 1.40753 -5.05053 -3.29176 
1130 1 1.37407 -5.77343 -3.74058 
3379 2 2.55276 -5.782 -3.69353 
3230 2 2.44736 -5.03806 -3.65997 
3244 2 4.53716 -4.88289 -4.31214 
701 1 3.82728 -5.32651 -3.88641 
3340 2 4.96569 -5.55205 -4.39522 
451 1 5.6406 -4.70995 -4.47868 
1364 1 5.26687 -4.77028 -3.42409 
2659 1 6.98045 -5.03814 -3.55779 
655 1 5.96156 -5.36258 -3.71563 
98 1 6.79369 -5.70572 -3.96381 
1031 1 -7.17501 -3.93298 -3.76864 
1444 1 -6.50329 -3.9193 -4.28897 
1182 1 -5.69698 -4.24 -4.3625 
1449 1 -5.66232 -3.50299 -4.06776 
2674 1 -5.04053 -4.26428 -3.7901 
1144 1 -3.30607 -4.18808 -4.46948 
1361 1 -4.508 -4.12764 -4.55052 
3376 2 -4.02206 -4.1468 -3.54776 
3083 2 -4.14047 -3.37312 -3.57954 
1086 1 -2.7641 -4.3008 -3.82766 
2044 1 -2.96189 -3.39857 -3.67993 
3198 2 -1.75367 -3.96874 -4.24646 
2058 1 -0.459829 -4.46702 -4.36936 
1552 1 0.520335 -4.07919 -4.0372 
1422 1 0.651495 -3.34944 -3.43175 
1028 1 -0.404626 -3.8606 -3.85161 
1160 1 1.52518 -4.40414 -4.4489 
1582 1 0.999336 -4.05522 -3.28027 
1611 1 1.31216 -3.56346 -4.30693 
3015 2 2.16157 -4.22509 -3.54082 
1967 1 2.91854 -3.76101 -4.33882 
927 1 3.25524 -3.98715 -3.33656 
2857 2 4.3799 -4.12002 -4.23845 
3353 2 4.25902 -3.30712 -4.14923 
1575 1 3.28207 -4.48736 -3.98728 
535 1 5.2401 -3.97573 -3.58116 
1372 1 5.54856 -3.78426 -4.24387 
3080 2 6.70579 -4.35138 -4.54068 
1595 1 6.0724 -4.43731 -3.73613 
721 1 6.19445 -3.65193 -3.4467 
1151 1 -6.09278 -2.61858 -3.80747 
2132 1 -6.98988 -2.21462 -4.30075 
2351 1 -6.76616 -3.1556 -3.91382 
1140 1 -4.93394 -3.26743 -4.35427 
1392 1 -5.2102 -2.45583 -3.94233 
3229 2 -4.20373 -2.5397 -3.49709 
2241 1 -3.57596 -2.45792 -4.48835 
2511 1 -2.93147 -2.75686 -3.30457 
228 1 -2.90733 -3.0293 -4.48223 
1023 1 -3.24959 -2.0789 -3.81883 
2916 2 -1.90383 -3.20369 -4.16515 
180 1 -0.852571 -3.09132 -3.78408 
2139 1 -0.868274 -2.49412 -4.57201 
2766 2 -1.96307 -2.39303 -4.1221 
2400 1 -1.19871 -2.35026 -3.35439 
2260 1 -0.216128 -2.64343 -3.63853 
1239 1 0.666392 -2.41043 -3.51979 
749 1 1.08287 -2.8997 -4.1452 
2901 2 1.89368 -2.80459 -3.3164 
984 1 2.07628 -3.1309 -4.54271 
566 1 2.74851 -2.6077 -4.2042 
1653 1 2.85763 -2.10503 -3.35545 
1237 1 1.988 -2.21233 -4.22072 
169 1 3.14916 -3.15022 -3.8036 
3134 2 4.05677 -2.59087 -3.92067 
1841 1 5.1774 -2.79815 -4.43089 
1226 1 5.3676 -3.11373 -3.55698 
960 1 5.00336 -2.28921 -3.38165 
1340 1 5.09736 -2.01836 -4.09627 
1428 1 6.94965 -3.11371 -3.50892 
2858 2 6.30375 -3.07475 -4.46203 
3116 2 6.23263 -2.28085 -4.15196 
1548 1 7.15369 -2.34257 -3.42807 
2126 1 -6.53315 -1.55331 -3.74387 
1458 1 -5.34753 -0.924206 -4.03609 
2157 1 -5.74871 -1.75268 -3.78944 
2302 1 -4.56591 -1.91325 -4.5495 
3447 2 -4.42123 -1.8381 -3.32958 
262 1 -3.38053 -1.23857 -3.47218 
412 1 -3.79936 -1.39483 -4.29102 
2108 1 -3.16354 -0.789414 -4.57719 
2748 2 -2.21558 -1.56776 -4.11838 
2789 2 -2.49468 -0.748826 -3.92137 
1491 1 -0.989672 -1.72794 -3.93886 
954 1 -1.36284 -0.800686 -4.17809 
969 1 -1.40245 -0.827023 -3.32715 
393 1 -0.645959 -0.925509 -3.32444 
904 1 -0.276531 -1.85973 -3.46237 
3585 2 -0.17779 -1.09985 -4.36738 
2237 1 0.544957 -1.49283 -3.56455 
2411 1 1.31635 -1.74188 -4.21083 
75 1 1.03054 -0.836402 -3.92322 
1300 1 2.79805 -0.710317 -4.23608 
482 1 2.77081 -1.62246 -4.15537 
1890 1 2.53054 -1.12984 -3.35015 
2298 1 1.99228 -1.23726 -4.12118 
2914 2 3.90596 -1.90061 -3.62193 
3483 2 3.6352 -1.11685 -3.51959 
1325 1 4.90501 -1.26054 -3.73191 
2856 2 6.046 -1.63087 -4.26512 
1343 1 7.10096 -1.3323 -3.88682 
1999 1 6.7114 -0.770124 -3.40268 
2902 2 5.98509 -0.810527 -4.35047 
2311 1 -6.4569 -0.574261 -3.77036 
2054 1 -7.05892 0.0557479 -3.85001 
1568 1 -6.31215 0.398955 -3.34352 
2448 1 -5.70104 -0.221252 -3.78508 
1910 1 -4.86886 -0.163012 -4.30718 
1790 1 -4.09827 -0.605262 -4.31502 
1579 1 -3.71277 -0.257737 -3.69244 
2436 1 -4.03197 0.548109 -4.06389 
2508 1 -3.28322 0.136475 -4.38787 
3490 2 -2.47173 -0.104633 -3.63667 
3588 2 -2.41239 0.632684 -3.54623 
2609 1 -1.4075 0.111611 -4.25651 
1441 1 -1.32857 0.0954117 -3.47468 
3500 2 -0.254673 -0.223184 -4.32288 
1777 1 -0.457589 0.0790736 -3.31325 
876 1 0.438448 -0.234082 -3.58101 
1266 1 0.501851 0.614994 -3.53151 
1065 1 0.788801 0.640635 -4.57459 
2187 1 1.28361 0.0456252 -3.76709 
665 1 2.01796 -0.355515 -3.69659 
414 1 2.66903 0.249414 -4.28247 
3305 2 3.55167 -0.312544 -3.55808 
3394 2 3.43848 0.442899 -3.49829 
2819 2 5.64209 0.0499421 -4.08347 
1328 1 4.61725 -0.451419 -4.1864 
504 1 4.62663 0.191893 -3.38418 
802 1 7.09987 -0.593603 -4.32039 
2584 1 6.70238 0.390532 -4.42681 
1807 1 6.62611 0.135136 -3.51896 
3263 2 -6.57992 1.15611 -4.40421 
1078 1 -7.14699 0.957414 -3.51853 
2010 1 -5.21876 0.665288 -4.4029 
1725 1 -5.57755 1.92167 -4.50327 
521 1 -4.68873 1.24376 -3.97197 
928 1 -5.66689 0.871147 -3.64013 
2383 1 -5.81845 1.65111 -3.72643 
697 1 -3.50111 1.2749 -4.36902 
1809 1 -4.13394 1.79737 -3.60152 
3120 2 -3.07795 1.1191 -3.49878 
1367 1 -1.9766 1.64031 -4.1145 
3372 2 -2.88185 1.85206 -3.37804 
1064 1 -1.80386 0.898127 -4.17404 
1812 1 -1.3302 1.09723 -3.45004 
3555 2 -0.249086 0.759295 -4.24737 
2950 2 -0.616992 1.49474 -4.04321 
1562 1 0.361757 1.57818 -3.3146 
1432 1 0.986779 1.30671 -3.85942 
1375 1 1.61954 1.89356 -3.5551 
295 1 1.63373 0.773419 -3.81796 
2407 1 2.85486 1.06875 -4.54989 
785 1 2.25899 1.46926 -3.9197 
2460 1 2.28611 0.690786 -3.42724 
2021 1 4.37765 0.725046 -4.11903 
1092 1 4.52682 1.43238 -4.55511 
613 1 3.65348 1.26538 -4.41435 
925 1 4.35008 1.32417 -3.48776 
2908 2 3.33403 1.21515 -3.33853 
3209 2 5.47553 0.992959 -3.85702 
3369 2 5.36105 1.7703 -3.66154 
1913 1 6.6922 1.14759 -4.04215 
1853 1 6.55408 1.67163 -3.3653 
3260 2 -6.85404 1.97772 -4.34793 
3033 2 -6.84676 2.67095 -3.97209 
1060 1 -6.00349 2.43035 -3.39209 
2396 1 -5.73138 2.8299 -4.34112 
731 1 -5.05483 2.16303 -3.73262 
1880 1 -5.19193 3.04053 -3.62042 
1148 1 -3.55145 2.21218 -4.1039 
286 1 -4.25308 2.84075 -3.62263 
2490 1 -2.29879 2.67833 -4.25735 
2077 1 -3.10665 3.02908 -4.40574 
2395 1 -2.76492 2.04712 -4.53688 