ITEM: TIMESTEP
14100
ITEM: NUMBER OF ATOMS
3594
ITEM: BOX BOUNDS pp pp pp
-7.2037249759038744e+00 7.2037249759038744e+00
-7.2037249759038744e+00 7.2037249759038744e+00
-7.2037249759038744e+00 7.2037249759038744e+00
ITEM: ATOMS id type x y z 
1258 1 -7.02575 7.03399 -6.48173 
558 1 -6.70796 -6.60983 -6.30469 
1616 1 -5.82484 -6.798 -6.47768 
2023 1 -5.40484 -6.14375 -6.70903 
1246 1 -4.17645 -5.95778 -6.78031 
2612 1 -3.88932 -5.71106 -5.89206 
1654 1 -3.80563 -7.09881 -6.72033 
3454 2 -2.52814 7.12669 -6.73734 
3268 2 -2.5602 -6.44301 -6.5154 
26 1 -1.22333 -7.02453 -6.26099 
360 1 -1.4635 -6.31672 -6.6695 
1107 1 0.496246 -6.32143 -6.49518 
3537 2 -0.398984 -6.57571 -7.13246 
1905 1 0.860319 -5.60079 -6.7431 
1582 1 -0.642527 -6.38041 -5.9759 
1088 1 1.58279 -6.30822 -6.61519 
2415 1 1.70833 -7.17607 -6.72892 
798 1 0.771919 -7.2723 -6.47679 
245 1 2.45429 -6.75572 -6.30014 
2623 1 2.81535 -6.52765 -6.97728 
3442 2 3.52866 -6.49359 -6.02829 
1100 1 4.16752 -6.20788 -7.09583 
209 1 4.57302 -6.63687 -6.5359 
589 1 4.89874 -6.99235 -5.91552 
2812 2 5.32439 -5.73343 -6.54524 
3208 2 5.58713 -6.46358 -6.69694 
1263 1 6.62665 -6.425 -6.06497 
2009 1 6.91984 -6.53851 -6.88474 
3495 2 -6.77522 -4.67992 -7.02487 
1437 1 -7.13552 -5.90581 -6.05272 
2015 1 -6.00237 -4.63974 -6.16055 
3366 2 -6.70112 -5.6525 -7.02717 
1282 1 -5.87315 -5.47769 -6.36115 
1918 1 -4.95847 -5.43924 -6.8099 
1354 1 -5.58757 -4.59383 -7.0088 
923 1 -4.28699 -4.8776 -6.42204 
2122 1 -3.62469 -5.30222 -6.98258 
2944 2 -2.89414 -5.58267 -6.22178 
3574 2 -3.06615 -4.77706 -6.03215 
2238 1 -1.15369 -5.67588 -5.77807 
520 1 -1.84256 -5.34753 -6.65817 
3019 2 -0.733764 -5.01011 -6.83373 
1966 1 0.232152 -5.04873 6.92681 
527 1 0.398017 -5.00734 -6.37309 
3368 2 -0.503062 -5.77486 -6.81032 
40 1 1.24144 -5.22505 -6.08763 
2379 1 2.48629 -5.64635 -6.82466 
1168 1 2.49534 -4.70577 -6.93425 
1073 1 2.07588 -4.81984 -6.08314 
2957 2 3.23865 -5.7459 -5.88604 
1215 1 3.81298 -5.17358 -6.89883 
628 1 4.26319 -5.64124 -6.32607 
1695 1 4.16823 -4.64435 -6.10806 
3212 2 5.32655 -4.92329 -6.33158 
645 1 4.62785 -5.29345 7.18307 
1954 1 6.22562 -5.56788 -6.08638 
2479 1 6.55089 -4.80875 -6.65601 
10 1 6.62656 -5.73693 -6.80921 
3029 2 -7.11578 -3.96742 -6.90281 
2975 2 -7.0595 -3.07186 -6.8115 
1671 1 -5.01283 -4.39849 -6.4578 
1392 1 -5.17987 -3.54267 -6.39864 
355 1 -6.15547 -3.73284 -6.24634 
2699 1 -4.26772 -3.92596 -6.33039 
1361 1 -3.66402 -4.29473 -6.92292 
2981 2 -3.04009 -4.00285 -5.78534 
386 1 -2.55066 -3.67695 -6.95228 
2706 1 -2.07506 -3.46391 -6.18639 
3061 2 -3.38791 -3.30695 -6.01622 
3484 2 -0.934456 -4.29778 -6.51902 
2808 2 -1.06409 -3.49503 -6.60707 
2549 1 -2.00801 -4.41094 -6.62965 
502 1 0.395405 -3.98201 -6.21421 
2368 1 0.0139487 -4.16678 -7.01405 
579 1 1.11628 -4.34374 -6.08814 
3158 2 1.24749 -3.4671 -7.00939 
2178 1 1.14132 -3.34773 -5.94079 
1425 1 2.30717 -4.10609 -6.3863 
2599 1 2.35276 -3.45509 -6.99049 
1738 1 3.1208 -3.68384 -6.67804 
2631 1 4.24598 -4.45787 -6.97827 
2407 1 3.23741 -4.54235 -6.82161 
2183 1 4.55466 -3.68849 -7.20448 
1976 1 3.95755 -3.77722 -6.41373 
3266 2 5.32835 -4.20192 -6.1866 
2767 2 5.13039 -3.45841 -6.38671 
802 1 6.42301 -3.88474 -6.32971 
1788 1 6.29445 -3.06491 -6.1089 
83 1 -5.80592 -2.90595 -6.63062 
2126 1 -6.23332 -2.28862 -7.2262 
2132 1 -5.49599 -2.31642 -6.17832 
1581 1 -4.66681 -2.60132 -6.42007 
1315 1 -3.98819 -2.03011 -6.88041 
1445 1 -4.11301 -3.22548 -6.93121 
1370 1 -3.14746 -2.64128 -7.04301 
433 1 -2.451 -2.15689 -6.88514 
821 1 -2.29056 -2.50419 -6.21193 
321 1 -2.06872 -3.08473 -7.01223 
3332 2 -1.17547 -2.63447 -6.51992 
2589 1 0.0762539 -3.34188 -6.65185 
2480 1 -0.0837477 -2.43839 -6.73069 
1767 1 0.483798 -2.79939 -5.91378 
3503 2 1.02858 -2.65569 -7.03647 
799 1 2.05161 -3.14634 -6.32009 
1635 1 3.10121 -2.72519 -6.58769 
2390 1 2.24852 -2.48183 -6.97336 
2500 1 4.08494 -2.76121 -6.99779 
388 1 3.79387 -2.888 -6.12812 
985 1 3.55881 -1.95982 -6.57656 
3550 2 4.94347 -2.59117 -6.16486 
2254 1 5.78378 -2.59107 -7.21576 
2972 2 4.59765 -1.97399 -5.97837 
3126 2 7.01369 -2.36983 -6.78188 
734 1 6.07149 -2.2661 -5.93583 
351 1 6.18865 -3.22437 -7.01539 
1340 1 -6.02541 -1.76962 -6.56121 
1369 1 -6.66841 -0.659383 -6.77772 
194 1 -5.36542 -1.42617 -5.89566 
2578 1 -4.73982 -1.59612 -6.43562 
3360 2 -5.47499 -1.2061 7.15815 
2677 1 -4.52482 -0.534786 -6.47206 
911 1 -4.00651 -1.11205 -6.97433 
1457 1 -3.53567 -0.632201 -6.47368 
2289 1 -3.21313 -1.715 -6.84523 
395 1 -2.66721 -0.984718 -6.54802 
3234 2 -1.53214 -1.84513 -6.40392 
3105 2 -1.48993 -1.18439 -6.11764 
1094 1 -0.63975 -0.79029 -7.00132 
1106 1 -0.419484 -1.5928 -6.67157 
2804 2 0.659106 -1.26868 -7.06661 
1618 1 0.431146 -2.01851 -5.90597 
1057 1 -0.171902 -1.08133 -5.95998 
3347 2 0.944276 -1.92991 -6.84761 
1837 1 1.42377 -1.48625 -5.94853 
1374 1 1.57496 -0.799092 -6.31767 
925 1 2.06272 -1.74224 -6.35906 
1834 1 2.9574 -1.46492 -6.30552 
2558 1 2.38482 -0.725328 -6.3846 
2535 1 3.95684 -1.29134 -6.98225 
483 1 3.5335 -0.770051 -6.49288 
2995 2 4.45239 -1.17134 -5.89621 
1698 1 5.21522 -1.70217 -7.04165 
377 1 5.75925 -1.91569 -6.57315 
1414 1 5.50966 -1.12493 -6.31363 
2530 1 4.77983 -0.839547 -6.81581 
3087 2 6.76341 -1.64243 -6.50636 
2840 2 6.69394 -0.930554 -6.51339 
806 1 -6.73744 0.26906 -6.44593 
3097 2 -5.57532 -0.406686 -6.83089 
3127 2 -5.61619 0.341773 -6.93112 
979 1 -4.46807 0.25668 -7.166 
2641 1 -5.15611 -0.652746 -5.75607 
2300 1 -4.11325 0.135306 -6.29692 
1238 1 -3.40349 0.111916 -5.95598 
2320 1 -2.86058 0.543733 -6.37377 
1815 1 -2.48663 -0.146468 -6.8314 
1993 1 -1.03356 0.0603373 -6.91911 
1116 1 -1.91478 0.351954 -7.05232 
28 1 -0.884496 0.603076 -5.76275 
3200 2 -1.86575 -0.323392 -5.95792 
2108 1 -0.707831 -0.282674 -6.17327 
3151 2 0.535791 -0.694672 -6.77925 
3088 2 0.424352 -0.0913809 -6.4287 
1938 1 1.6011 -0.452849 -7.19894 
1368 1 1.29542 0.354633 -6.83937 
2960 2 2.55006 0.246395 -7.07535 
42 1 3.01379 -0.287376 -5.93752 
1241 1 2.03024 0.0130428 -6.12002 
2380 1 3.90289 0.0219987 -6.76486 
2086 1 4.70375 -0.0276448 -6.65527 
1398 1 5.19602 0.57121 -6.23992 
263 1 5.69534 -0.423751 -6.87299 
2797 2 6.65305 -0.0655771 -6.488 
3135 2 6.38446 0.585604 -6.1689 
3140 2 -5.88391 1.81752 -6.41567 
2151 1 -6.88555 1.00461 -5.7139 
3007 2 -5.81022 1.13423 -6.70299 
1584 1 -7.03454 1.81839 -6.07716 
1455 1 -6.78449 1.84634 -7.10861 
1027 1 -4.78142 0.862359 -6.62395 
2523 1 -4.99153 1.28672 -5.7722 
625 1 -4.75209 1.79038 -6.68763 
2180 1 -4.03549 1.0113 -6.21226 
2560 1 -4.22662 1.82775 -6.0595 
3148 2 -3.43888 1.16606 -7.14325 
580 1 -3.29329 1.1569 -5.70041 
2037 1 -2.51841 1.46949 -6.71469 
1265 1 -1.81758 1.06748 -6.64233 
1257 1 -1.06867 1.70966 -5.92567 
1978 1 -0.930565 0.921412 -6.55326 
3311 2 0.158345 0.704902 -6.29767 
2928 2 0.281816 1.45401 -6.15159 
221 1 1.50784 1.0529 -6.06498 
673 1 1.11932 2.05558 -6.33252 
225 1 1.20848 1.36362 -6.87606 
3459 2 2.47146 1.05363 -6.85758 
850 1 4.47945 0.856483 -6.62576 
530 1 3.23221 0.424299 -6.27697 
1176 1 3.71016 1.28117 -6.39944 
50 1 4.44419 1.73564 -6.38782 
74 1 3.42594 1.61407 7.1155 
1681 1 5.66939 1.47169 -7.01365 
1092 1 5.66652 0.506108 -6.9492 
122 1 -6.96956 1.08041 -6.62286 
3038 2 6.37285 1.27282 -5.99429 
1684 1 6.61768 1.64261 -6.96048 
3465 2 -6.27004 2.58872 -6.24932 
2736 2 -6.55026 3.31558 -6.39527 
2685 1 -4.97193 2.59307 -6.59808 
3093 2 -3.68979 2.01778 -7.02974 
2783 2 -3.81154 2.84696 -6.92695 
1965 1 -3.1481 1.93057 -6.15074 
1499 1 -2.50289 3.13392 -6.23734 
732 1 -3.28867 2.91065 -6.03192 
1056 1 -2.49038 2.35192 -6.59461 
561 1 -1.58223 2.14274 -6.52132 
1933 1 -1.67222 2.93147 -6.29775 
1353 1 -0.951821 2.71124 -6.9485 
3078 2 -0.0393884 2.1684 -5.96124 
3444 2 -0.550551 2.75359 -6.06883 
855 1 -0.122501 2.46148 7.11031 
1525 1 0.509639 1.93964 -7.06059 
2522 1 0.71815 2.87359 -6.22854 
3417 2 2.05434 2.47623 -6.62485 
3393 2 2.52871 1.83093 -6.77163 
1286 1 3.26407 2.5459 -7.16669 
785 1 3.03452 3.04315 -6.48557 
2231 1 4.08638 2.90584 -6.14581 
565 1 3.53836 2.1841 -6.20911 
2765 2 4.28391 2.98095 -7.17565 
2066 1 4.66876 2.36477 -5.87683 
2711 1 4.85173 3.45559 -6.364 
889 1 5.31253 2.35089 -6.58775 
2377 1 5.48895 3.38695 -6.91851 
2072 1 6.05024 2.38377 -7.07937 
2305 1 6.82793 2.39681 -6.69879 
1927 1 6.54039 3.22692 -6.61766 
3060 2 6.13839 2.04269 -5.80027 
3238 2 -6.59103 4.11419 -6.18535 
402 1 -5.34718 4.25268 -7.22098 
718 1 -5.64972 5.04286 -7.05878 
789 1 -5.40863 4.39709 -6.24082 
2010 1 -5.37141 3.46108 -6.65659 
3408 2 -4.07342 3.60887 -6.84473 
3411 2 -4.40478 4.27885 -6.78851 
343 1 -3.26103 3.94651 -6.07884 
1894 1 -2.89715 3.63665 -6.89763 
1102 1 -2.41188 4.08189 -6.18037 
1932 1 -1.24205 3.76462 -6.52564 
474 1 -0.665243 3.5712 -7.21027 
2508 1 -0.220651 4.19513 -6.77604 
1817 1 0.109451 3.25548 -7.0907 
2429 1 0.399051 3.77091 -6.38877 
1016 1 0.818521 4.58255 -6.83988 
3478 2 1.70126 3.27191 -6.45915 
3466 2 1.72313 4.01561 -6.30469 
430 1 2.82442 4.07672 -6.84107 
268 1 3.54522 3.47865 -5.97533 
3551 2 4.06765 3.91023 -6.99328 
404 1 5.72443 4.15203 -6.67675 
1247 1 4.81862 4.31359 -5.87545 
255 1 5.07667 4.44037 -7.06052 
131 1 6.98158 2.87748 -5.96271 
1760 1 6.63058 4.0005 -6.53293 
577 1 -7.14498 3.37402 7.07875 
1413 1 -6.45424 5.26764 -6.86311 
1318 1 -5.72 5.22889 -6.05509 
3471 2 -4.54413 5.05791 -6.64297 
2662 1 -5.64279 5.85286 -6.82205 
3463 2 -4.46441 5.74598 -6.39052 
2576 1 -3.29183 4.45281 -6.85769 
989 1 -3.42053 4.70253 -6.11227 
59 1 -3.28182 5.49768 -6.76066 
3306 2 -2.37072 4.91805 7.17061 
2839 2 -2.11573 5.56812 -6.92083 
883 1 -2.76312 5.20329 -5.96252 
1623 1 -1.22686 4.80376 -6.50735 
1253 1 -1.2487 5.53058 -6.00305 
2630 1 -0.567543 5.68319 -6.599 
849 1 -0.0460842 5.10147 -6.54318 
3138 2 1.84321 4.87144 -6.11497 
2831 2 1.62568 5.60118 -6.00117 
1261 1 2.12557 5.9115 -7.11805 
1486 1 0.669414 4.69251 -6.05364 
2322 1 0.72349 5.77027 -6.69361 
1505 1 2.2172 4.87709 -7.17452 
1923 1 2.78608 5.10126 -6.67284 
3223 2 3.97949 4.60134 -6.81246 
2790 2 3.88584 5.28787 -6.70827 
795 1 5.01937 4.93858 -6.35552 
274 1 5.70892 5.43434 -6.25975 
865 1 4.67274 5.57046 -5.79858 
302 1 4.99459 5.77798 -6.93136 
2594 1 6.07831 4.76674 -6.09403 
2160 1 6.82709 5.17935 -6.63869 
1879 1 -6.59854 6.13053 -6.63085 
66 1 -6.0228 6.77262 -6.65153 
2396 1 -5.33462 7.02415 -6.97446 
3477 2 -4.70089 7.22829 -5.97142 
3150 2 -4.48814 6.50304 -6.15764 
1235 1 -3.46132 7.00418 -5.96371 
1619 1 -3.49394 6.29709 -6.78695 
262 1 -4.29741 6.7953 7.18574 
1140 1 -3.18524 5.8926 -6.02982 
2832 2 -2.44105 6.30962 -6.74251 
345 1 -1.07416 6.269 -7.10898 
2326 1 -1.34409 6.30444 -6.20981 
448 1 -0.512914 6.93758 -6.20363 
1652 1 -0.21515 6.1971 -6.14501 
3259 2 0.00369459 7.15012 -7.11363 
1567 1 0.458894 6.51343 -5.83234 
1685 1 1.18633 6.44334 -6.79125 
725 1 2.21755 6.62389 -6.61857 
486 1 2.75066 5.92335 -6.37754 
215 1 3.01737 6.07659 7.08351 
3569 2 3.68654 6.24203 -6.61423 
3587 2 3.6898 7.09231 -6.39608 
1724 1 4.86055 7.09053 -6.73369 
2787 2 5.87897 7.203 -7.02262 
1295 1 4.78651 6.47248 -6.17553 
112 1 7.07284 6.39547 -6.99345 
3539 2 5.93671 6.32631 -7.19216 
2136 1 6.61297 6.78571 -6.26519 
1051 1 5.67297 6.1898 -6.03059 
1530 1 6.56628 5.9923 -6.25206 
2574 1 -6.07437 -6.35981 -5.5791 
3487 2 -7.12354 -6.39929 -5.12146 
1555 1 -6.28696 -5.64656 -5.01011 
3520 2 -4.80143 -6.41238 -5.71476 
1148 1 -5.53727 -6.94099 -4.92423 
1396 1 -4.39066 -6.84466 -4.49545 
977 1 -3.55674 -6.56913 -6.01244 
964 1 -3.63869 -6.80469 -5.22773 
1725 1 -3.93264 -6.02489 -4.94102 
2627 1 -1.85328 -6.16468 -5.53211 
1836 1 -1.88708 -6.88876 -4.81343 
1691 1 -2.96185 -6.07361 -5.2533 
1227 1 -2.67201 -6.88766 -5.50363 
3594 2 -0.772716 -6.50211 -4.98152 
2491 1 0.0974435 -6.88226 -5.83857 
1881 1 0.155935 -6.26316 -5.02992 
3128 2 1.11382 -6.53184 -5.40638 
2978 2 1.41783 7.10427 -5.61515 
1634 1 1.96511 -5.72924 -6.10724 
1416 1 2.07868 -5.95857 -4.5893 
2256 1 2.27446 -6.21169 -5.46998 
862 1 1.98911 -6.95514 -4.5509 
1992 1 2.97585 -5.98729 -4.89859 
893 1 4.09606 -6.0631 -5.05256 
281 1 4.64776 -6.13398 -5.74923 
1175 1 3.64493 -6.82207 -4.78968 
329 1 5.44986 -6.49934 -5.49403 
3290 2 4.93411 -6.25241 -4.47418 
2926 2 5.0308 -7.00014 -4.57563 
538 1 6.23604 -7.08567 -5.65358 
2288 1 6.28264 -6.83212 -4.71926 
317 1 6.04236 -5.9641 -5.31399 
639 1 -7.16431 -4.96128 -6.00826 
2045 1 -6.37767 -5.24194 -5.72487 
3416 2 -5.01614 -5.63891 -5.54886 
1718 1 -5.78469 -5.12439 -4.39915 
3325 2 -5.1522 -4.97207 -5.4133 
2727 1 -4.1684 -5.11966 -4.86015 
1784 1 -4.07226 -4.90262 -5.58139 
1344 1 -3.2508 -5.28224 -4.91512 
909 1 -2.20836 -5.34709 -5.44318 
2426 1 -2.46992 -4.79653 -4.75642 
2139 1 -1.61075 -4.74127 -5.81711 
15 1 -0.485704 -5.24224 -5.43513 
3322 2 -1.26384 -5.84217 -4.66505 
1210 1 0.0609657 -5.74829 -5.84316 
842 1 -0.00181705 -4.58825 -5.79666 
1643 1 -0.0643762 -5.36493 -4.67502 
2826 2 1.00275 -5.68581 -5.28953 
3068 2 0.788794 -5.01857 -5.16092 
2113 1 2.0093 -5.35549 -5.28325 
2933 2 3.14701 -4.95237 -5.77589 
2145 1 2.77479 -5.02426 -4.64446 
1075 1 1.84052 -4.91188 -4.33141 
2462 1 4.26788 -5.26971 -5.48583 
224 1 3.65145 -5.44955 -4.81216 
2656 1 4.6499 -4.45405 -5.28892 
85 1 5.2327 -5.50594 -5.49806 
2828 2 6.9565 -5.68111 -4.88307 
3010 2 7.01774 -4.8818 -4.77793 
1373 1 6.40019 -4.78086 -5.7551 
1526 1 5.83499 -5.17085 -5.06311 
346 1 -6.5853 -3.4581 -4.94717 
472 1 -6.56926 -4.09524 -5.59812 
1872 1 -6.37596 -4.67311 -4.97253 
2912 2 -5.32248 -4.26784 -5.24618 
2737 2 -5.57635 -3.53194 -5.36055 
1800 1 -4.21415 -4.14432 -5.56377 
1071 1 -3.50369 -4.43204 -4.91634 
1465 1 -4.34477 -3.43215 -5.18136 
2248 1 -3.73167 -3.62378 -4.74344 
128 1 -2.15659 -4.25899 -5.45332 
2524 1 -2.7371 -3.89268 -4.71063 
995 1 -0.827833 -4.31435 -5.40759 
484 1 -1.34898 -3.63139 -5.5719 
2102 1 -0.249006 -4.61321 -4.96052 
139 1 -0.177119 -3.69901 -5.70682 
1722 1 -0.720062 -3.52146 -4.95128 
2768 2 0.842705 -4.22053 -4.95122 
3227 2 0.535672 -3.48414 -4.93592 
891 1 1.77252 -4.11227 -5.65144 
480 1 2.62345 -4.06763 -4.597 
3249 2 3.0327 -4.1554 -5.64793 
3014 2 2.81655 -3.15566 -5.55235 
1237 1 2.08789 -4.51047 -5.11083 
250 1 1.81885 -3.47225 -5.1284 
665 1 3.79508 -4.53151 -4.94304 
1385 1 4.15442 -3.76963 -5.55771 
847 1 5.5754 -4.34384 -5.106 
1034 1 5.37504 -3.57581 -4.99943 
190 1 4.72054 -3.17875 -5.28981 
1320 1 6.28148 -3.98678 -5.49028 
659 1 7.08587 -3.96884 -5.87749 
3080 2 6.88868 -4.00884 -4.74506 
304 1 -6.47362 -3.15901 -5.84431 
1999 1 -6.90737 -2.60958 -4.98729 
670 1 -6.4391 -2.20713 -5.97148 
2890 2 -5.68122 -2.81281 -5.18425 
2974 2 -5.8869 -2.11893 -4.87944 
1446 1 -4.49793 -2.63291 -4.8596 
2310 1 -3.524 -2.81161 -4.92156 
477 1 -4.6662 -3.13127 -5.80447 
56 1 -4.84239 -2.13129 -5.57364 
3041 2 -3.39126 -2.51961 -5.98372 
1979 1 -2.78815 -3.12739 -4.93446 
37 1 -2.18749 -2.96816 -5.53395 
871 1 -2.47096 -2.18063 -5.084 
1380 1 -1.46559 -2.60953 -5.43723 
1953 1 -0.476132 -2.76035 -5.58472 
3430 2 0.440114 -2.7087 -4.74239 
84 1 1.59082 -2.41114 -5.94565 
1946 1 1.42211 -2.707 -5.23082 
2830 2 2.52543 -2.27044 -5.44719 
1472 1 3.36484 -2.81788 -4.54087 
1859 1 3.65391 -2.23558 -5.26897 
1313 1 3.8501 -2.97659 -5.19338 
72 1 4.44167 -2.36713 -4.87799 
110 1 3.09589 -1.89895 -4.55423 
1496 1 5.44612 -2.28101 -5.30262 
452 1 5.81364 -3.07365 -5.43992 
3173 2 6.68704 -3.3448 -4.67335 
656 1 6.76253 -2.31213 -5.56481 
1207 1 7.12382 -3.08207 -5.72247 
2858 2 6.37784 -2.64346 -4.50012 
1301 1 -7.16752 -1.60068 -4.73296 
2993 2 -6.14706 -1.46158 -5.0347 
90 1 -6.29747 -0.903166 -6.09793 
1145 1 -6.86462 -1.41947 -5.80317 
3267 2 -6.31453 -0.864148 -4.77213 
1514 1 -4.77267 -1.47056 -5.07453 
1835 1 -4.37614 -1.2 -4.37059 
2869 2 -3.71383 -1.81942 -5.79651 
2844 2 -3.93993 -1.11762 -5.62386 
1790 1 -2.53978 -1.68862 -5.77103 
400 1 -2.21886 -1.00649 -5.15684 
2718 1 -2.92741 -0.576984 -5.64093 
1864 1 -3.18882 -1.77029 -4.60014 
2105 1 -0.416414 -1.87974 -5.57744 
2395 1 -1.30772 -1.84317 -5.0608 
2605 1 -0.863444 -1.1117 -5.14714 
3354 2 0.190975 -1.84273 -4.61295 
1890 1 0.748513 -1.0691 -5.60758 
202 1 1.21156 -1.85166 -5.13733 
2434 1 1.2379 -0.849074 -4.90776 
3356 2 2.3746 -1.42442 -5.16975 
3557 2 2.26539 -0.697413 -5.17415 
2336 1 4.11165 -1.57807 -4.739 
859 1 3.50784 -1.22903 -5.68348 
1830 1 5.94218 -1.49454 -5.7377 
148 1 5.37338 -0.829462 -5.24579 
2352 1 5.01067 -1.63163 -5.07863 
720 1 6.75033 -1.42962 -5.41549 
2130 1 6.26954 -0.665508 -5.53306 
34 1 6.8795 -0.654743 -4.82947 
1841 1 -6.49104 -0.043041 -5.78498 
1402 1 -7.11757 -0.538589 -5.55469 
1200 1 7.14327 0.34953 -5.28183 
499 1 -4.98222 0.40047 -5.95509 
493 1 -5.71219 -0.0159413 -5.78688 
385 1 -5.37955 -0.365519 -4.98143 
1551 1 -5.30953 0.402004 -4.78176 
3543 2 -4.25926 -0.459748 -5.24568 
3256 2 -4.2242 0.326787 -5.03829 
1928 1 -3.0916 -0.953613 -4.78299 
827 1 -2.98153 0.208343 -5.2709 
2077 1 -2.21855 -0.0775386 -4.79613 
1268 1 -1.41144 -0.652334 -4.75928 
2796 2 -1.93449 0.420276 -5.74712 
1074 1 -0.609226 -0.230067 -5.31384 
1531 1 0.276532 -0.425152 -5.44038 
75 1 -0.0940572 0.547636 -5.18621 
1777 1 1.22553 -0.169195 -5.72692 
1713 1 0.929831 0.786803 -5.58439 
1432 1 0.753285 0.219535 -5.03683 
3449 2 1.8925 -0.0545097 -4.8404 
1185 1 3.05106 0.535409 -5.39862 
886 1 3.47169 -0.419772 -5.09291 
3317 2 4.37275 -0.39524 -5.6942 
2848 2 4.20732 0.345464 -5.62147 
2068 1 5.46641 -0.220972 -6.00179 
140 1 5.38115 0.0788977 -5.15665 
1568 1 6.31351 -0.0105413 -5.18209 
443 1 -6.06726 0.801633 -5.78324 
1151 1 -6.6423 1.66915 -5.2135 
408 1 -5.51355 1.07538 -5.1194 
3144 2 -4.1046 1.10871 -5.1519 
2861 2 -4.38039 1.57464 -4.63531 
2939 2 -2.13961 1.13999 -5.50256 
2846 2 -2.12442 2.01702 -5.53428 
1483 1 -2.92906 0.896433 -4.8453 
857 1 -3.14456 1.9067 -4.7328 
1880 1 -1.20615 0.413751 -4.85204 
1775 1 -1.35152 1.37388 -4.61537 
2489 1 -0.631583 1.36118 -5.21192 
867 1 0.20949 1.32771 -4.90843 
171 1 0.786948 1.50429 -5.32603 
3383 2 1.7504 0.731185 -4.71524 
3443 2 1.70022 1.46541 -4.60674 
970 1 1.90135 1.55493 -5.64833 
1997 1 3.00704 1.46663 -5.90049 
175 1 2.30892 0.625404 -5.78544 
2575 1 2.71156 1.48617 -5.04823 
3364 2 4.15687 1.04006 -5.45948 
3388 2 3.95154 1.69364 -5.22022 
234 1 5.33282 0.967364 -5.4794 
2445 1 5.19486 1.49259 -6.16366 
941 1 6.13576 0.788438 -4.99952 
2327 1 5.93948 1.60067 -4.86885 
13 1 6.99675 1.34288 -4.99406 
1335 1 -5.87039 1.91345 -5.26839 
92 1 -6.67089 2.72391 -5.07015 
1224 1 -5.14248 2.21014 -5.61357 
2200 1 -5.49804 3.16304 -5.56315 
3062 2 -4.66967 2.30587 -4.74886 
2061 1 -5.86218 2.71188 -4.84049 
2490 1 -3.54552 2.11608 -5.42637 
1833 1 -4.1888 2.61668 -5.79686 
1986 1 -3.73333 2.82554 -4.77269 
3117 2 -2.41659 2.682 -5.28245 
2208 1 -1.16562 2.2917 -5.38758 
2647 1 -1.5614 3.26163 -5.39264 
1521 1 -0.805006 3.00222 -4.76716 
46 1 -0.61229 2.16639 -4.8263 
2708 1 0.281031 2.45544 -4.88091 
1375 1 1.08152 2.29108 -5.47122 
2271 1 1.81322 2.56946 -5.51306 
1614 1 2.46736 2.34174 -4.83452 
47 1 2.82401 2.34645 -5.67131 
324 1 2.45899 3.24515 -5.53257 
3433 2 3.62774 2.41592 -5.06621 
2894 2 3.39964 3.19704 -4.98096 
2092 1 4.69797 3.08658 -5.37922 
2584 1 5.18323 1.93551 -5.30472 
1466 1 4.76164 2.45813 -4.63681 
2690 1 6.9838 2.30694 -5.27745 
3414 2 5.90988 2.89688 -5.70437 
1169 1 6.5617 2.98842 -4.79029 
412 1 -6.00447 3.69143 -4.32417 
896 1 -6.42244 3.59365 -5.09356 
120 1 -6.74868 4.65077 -4.73105 
668 1 -4.78803 3.32204 -5.9724 
928 1 -5.69985 3.88496 -5.49213 
1669 1 -4.7149 4.10135 -5.78292 
2495 1 -3.88762 3.42003 -5.46305 
2687 1 -3.93345 4.39451 -5.47449 
1255 1 -3.83578 3.92186 -4.65823 
2945 2 -2.85825 3.22346 -5.12661 
2977 2 -2.70574 3.99646 -5.18739 
353 1 -1.65409 4.16118 -5.72163 
197 1 -1.15577 3.90369 -4.65814 
894 1 0.523446 3.16099 -5.28701 
2813 2 -0.512752 3.41394 -5.73245 
2176 1 0.329825 3.85675 -4.95758 
3378 2 -0.444988 4.24248 -5.76079 
586 1 0.789637 4.16596 -5.52695 
1639 1 1.48571 3.79219 -5.37623 
23 1 1.66061 4.55644 -4.9742 
482 1 2.48482 4.1812 -5.18633 
614 1 2.70063 4.02772 -6.03053 
3013 2 3.42035 3.93923 -4.59363 
1644 1 2.325 3.61395 -4.78286 
2172 1 4.55174 3.80604 -4.83629 
2414 1 4.32741 3.75375 -5.79755 
2814 2 3.33469 4.6934 -4.64531 
3298 2 5.86635 3.70019 -5.44443 
2917 2 5.53668 4.42341 -5.1367 
462 1 6.75692 4.57718 -5.72176 
2541 1 7.0308 3.69015 -5.22403 
283 1 6.40725 4.08574 -4.54397 
3045 2 -6.7304 4.96267 -5.90333 
3147 2 -6.81155 5.76024 -5.82134 
2308 1 -5.96929 5.58004 -5.1502 
822 1 -5.99979 4.67145 -5.12166 
1543 1 -5.02725 4.92365 -5.45988 
1030 1 -3.74223 5.41019 -5.55403 
2466 1 -4.15307 4.8998 -4.85742 
2865 2 -2.83852 4.74937 -5.00547 
3458 2 -2.90393 5.49721 -4.84252 
2626 1 -1.90647 4.99716 -5.98263 
597 1 -1.59339 5.01442 -5.1041 
1702 1 0.496628 5.59651 -5.61403 
3392 2 -0.512457 4.91982 -5.45041 
3207 2 -0.550941 5.70221 -5.16458 
2080 1 0.286773 4.75464 -4.65005 
1709 1 0.612596 6.11758 -4.89572 
2038 1 0.965268 5.11872 -5.1736 
1141 1 1.41916 5.74152 -4.76967 
825 1 2.92517 4.85863 -5.72634 
103 1 2.37059 5.29277 -5.22072 
1422 1 2.75987 6.03239 -5.42578 
1066 1 3.65065 5.58742 -5.75298 
908 1 3.59913 4.30064 -5.72619 
2028 1 4.26161 4.87683 -5.46873 
2025 1 4.01635 5.66937 -4.91643 
2927 2 5.45497 5.23829 -5.16964 
2209 1 6.72572 4.72573 -4.97069 
1667 1 6.43742 5.57784 -5.42897 
2747 2 -7.04755 7.18715 -5.26972 
3330 2 -6.83043 6.43744 -5.56866 
2376 1 -4.92475 5.91399 -5.33345 
1004 1 -5.7054 6.12342 -6.10257 
2573 1 -5.88871 7.0102 -5.75386 
297 1 -5.67055 6.46581 -5.13481 
803 1 -4.95981 6.83454 -4.97613 
2275 1 -4.24704 5.84912 -4.95565 
715 1 -3.99297 6.72319 -5.24688 
1744 1 -2.00844 5.90178 -5.67739 
1394 1 -2.67187 6.54843 -5.64172 
658 1 -1.80108 6.96302 -5.74288 
3455 2 -0.871812 7.17399 -5.14323 
3018 2 -0.624365 6.4141 -5.20729 
897 1 -1.96779 6.61848 -4.84338 
1435 1 0.163681 6.3331 -4.24708 
1382 1 0.296303 7.00237 -5.06078 
2899 2 1.63454 6.38057 -5.61009 
372 1 1.10482 6.77913 -4.58637 
686 1 2.63137 6.88577 -5.89188 
1689 1 2.88473 -6.98767 -5.22097 
1249 1 2.25537 6.56627 -4.87881 
295 1 3.46601 6.72285 -5.3678 
492 1 4.30632 -7.02595 -5.30271 
2051 1 5.54204 7.03015 -5.91283 
1513 1 4.29822 6.32573 -5.5883 
3257 2 5.17984 6.09006 -5.02286 
2971 2 5.48984 6.78638 -4.76744 
244 1 6.43938 6.41412 -5.26306 
1399 1 -6.42486 -6.42923 -4.34321 
1153 1 -6.77903 -6.42721 -3.27663 
1490 1 -5.67983 -5.99221 -4.67873 
3469 2 -5.48519 -6.36401 -3.60633 
1772 1 -4.78351 -5.97287 -4.42013 
2835 2 -3.19733 -6.57702 -4.07056 
138 1 -4.20939 -6.73104 -3.60124 
2332 1 -4.52939 -5.9059 -3.32207 
1506 1 -3.49729 -6.7934 -3.0204 
2033 1 -2.41737 -6.68354 -3.23533 
356 1 -2.44635 -6.06024 -4.54801 
350 1 -2.24491 -5.89113 -3.49626 
180 1 -1.27124 -5.95828 -3.58941 
2453 1 -1.89409 -6.6988 -3.90367 
6 1 -1.03072 -6.92814 -3.89892 
1127 1 -0.263276 -6.49649 -3.86624 
3236 2 0.916846 -6.6108 -3.20449 
635 1 0.460718 -6.10342 -4.3091 
1945 1 0.193786 -7.08676 -4.2766 
1799 1 1.10517 -6.68851 -4.38814 
2298 1 1.29105 -5.65979 -4.15595 
2067 1 1.71536 -6.5257 -3.76244 
632 1 1.93722 -5.99113 -3.39335 
3303 2 2.93521 -6.66963 -3.94048 
2918 2 2.91221 -5.75267 -3.77422 
1358 1 3.97976 -6.42932 -4.18102 
2714 1 4.13047 -6.22922 -3.39303 
144 1 4.90571 -6.84149 -3.46521 
2695 1 5.78522 -5.81354 -3.64106 
2571 1 5.8116 -6.84338 -3.66612 
2029 1 5.96933 -6.08912 -4.37034 
610 1 6.96486 -6.72311 -3.969 
2269 1 -6.60397 -4.88336 -4.05351 
1893 1 -6.68424 -5.71129 -3.87953 
582 1 -4.87097 -5.20265 -4.31976 
3228 2 -5.73795 -5.735 -3.29797 
2318 1 -4.74768 -5.01279 -3.47369 
3413 2 -3.60165 -5.86435 -3.9353 
3562 2 -3.60626 -5.10395 -3.76313 
104 1 -2.45014 -5.40297 -3.97102 
401 1 -2.7763 -4.88742 -3.15793 
322 1 -1.44745 -4.9127 -3.44036 
3480 2 -1.41357 -5.16877 -4.45023 
954 1 -0.529491 -4.65943 -3.85693 
1863 1 0.556244 -5.34967 -4.10921 
1431 1 -0.364702 -5.63019 -3.9672 
1069 1 1.18087 -4.59161 -3.96066 
1998 1 1.38077 -5.28921 -3.37909 
3379 2 2.53934 -4.97102 -3.64077 
1653 1 3.58108 -4.61111 -4.05638 
2075 1 3.95634 -5.55011 -4.03308 
2825 2 4.94773 -5.46832 -4.44967 
1878 1 5.54196 -4.99104 -3.41229 
1312 1 6.83235 -5.78842 -3.872 
2162 1 6.88528 -4.90126 -3.58247 
1000 1 5.99352 -5.16769 -4.154 
1481 1 -6.09313 -4.14873 -4.38222 
1673 1 -6.78694 -3.86139 -3.91134 
1885 1 -5.29539 -4.39725 -4.14202 
2106 1 -5.6832 -3.55062 -4.0262 
2388 1 -4.83665 -3.49614 -4.38686 
2350 1 -4.8281 -4.00454 -3.43737 
1609 1 -4.37372 -4.24395 -4.59224 
3536 2 -3.52356 -4.18632 -3.74268 
3376 2 -3.78849 -3.41299 -3.71146 
1143 1 -2.42615 -4.36986 -3.79268 
1470 1 -2.84398 -3.34145 -4.06459 
3285 2 -1.26787 -4.50455 -4.61021 
2916 2 -1.59302 -3.75546 -4.35032 
1251 1 -1.04464 -4.00933 -3.45188 
851 1 -0.358764 -3.79875 -4.26214 
2044 1 0.31143 -3.28511 -3.8908 
1028 1 0.318457 -4.42552 -4.01447 
1611 1 1.66198 -3.90153 -4.38719 
858 1 1.43054 -3.03316 -4.32761 
1843 1 0.968415 -3.74376 -3.77232 
2306 1 2.32629 -3.12546 -4.59834 
3230 2 2.2784 -4.43662 -3.0484 
3015 2 2.42583 -3.92372 -3.60281 
2150 1 3.42201 -3.73012 -4.6861 
2712 1 3.57681 -3.71363 -3.65497 
3340 2 4.80264 -4.79062 -4.1609 
3244 2 4.4862 -4.06329 -4.17675 
2239 1 5.40869 -3.47485 -3.998 
463 1 5.31074 -4.05847 -3.32358 
1807 1 5.02072 -3.16853 -3.21041 
1994 1 6.19896 -4.42457 -3.65762 
1493 1 5.87397 -4.16869 -4.40488 
2721 1 6.76067 -3.6747 -3.55033 
1013 1 -6.9896 -3.01942 -3.79563 
587 1 -6.27755 -3.04388 -4.17152 
874 1 -6.0675 -2.06302 -3.91248 
831 1 -7.05013 -2.2099 -4.21258 
2309 1 -5.09993 -2.68155 -4.27781 
1144 1 -5.58124 -2.68089 -3.58793 
3083 2 -4.09757 -2.66768 -3.79617 
2496 1 -2.68393 -2.81808 -3.23396 
647 1 -2.89542 -2.47682 -4.23262 
1064 1 -0.773057 -2.62388 -4.6306 
3198 2 -1.77153 -3.00898 -4.32707 
2766 2 -1.9004 -2.38098 -3.89877 
1266 1 -0.595501 -3.14521 -3.80644 
2020 1 0.0920083 -2.41721 -3.72772 
922 1 1.74674 -2.18118 -4.57338 
984 1 1.14947 -2.30338 -4.00443 
879 1 2.95845 -2.05288 -3.32224 
535 1 3.13488 -2.9817 -3.6768 
169 1 2.58683 -2.45441 -4.13736 
2857 2 4.36513 -3.13485 -4.03118 
3353 2 4.09539 -2.37907 -3.80607 
2211 1 5.27089 -2.65779 -4.49401 
2365 1 5.40009 -2.32499 -3.66229 
844 1 6.84762 -2.50245 -3.59974 
335 1 6.07369 -3.11806 -3.4671 
1325 1 -6.61631 -1.35697 -3.80935 
1707 1 -5.74714 -1.18131 -3.71672 
572 1 -5.14759 -1.87912 -4.0927 
960 1 -5.30687 -0.810114 -4.26617 
808 1 -3.9365 -1.9527 -4.70128 
2674 1 -3.51975 -1.27473 -4.00165 
3229 2 -4.37806 -2.04454 -3.34212 
2638 1 -3.04077 -2.07294 -3.58055 
2748 2 -1.97862 -1.58628 -4.18292 
2789 2 -2.36838 -1.04911 -3.80891 
2542 1 -0.655894 -1.95302 -3.85751 
1484 1 -1.08034 -0.544677 -3.6295 
1971 1 -1.0864 -1.15442 -4.14813 
2057 1 -1.50709 -1.48638 -3.13111 
3585 2 -0.0117283 -1.13778 -4.53091 
2540 1 -0.44372 -1.26303 -3.35778 
2237 1 0.669313 -0.783356 -3.58873 
1969 1 1.08641 -1.36552 -4.22283 
236 1 2.56625 -1.54226 -3.94653 
247 1 1.84134 -1.19335 -4.26272 
2722 1 2.84252 -0.609807 -4.1391 
1337 1 3.37412 -1.07615 -4.68702 
3134 2 3.85271 -1.60154 -3.70834 
2914 2 3.88619 -0.801321 -3.77955 
1703 1 4.95714 -1.01406 -3.71426 
2856 2 6.01098 -1.15528 -4.30282 
1648 1 4.6767 -0.803622 -4.6904 
153 1 4.93494 -1.58883 -4.27998 
2054 1 7.1168 -0.863268 -4.06492 
3116 2 6.19929 -1.86459 -4.44893 
423 1 6.85936 -1.6715 -3.4836 
1882 1 -7.10601 -0.162552 -3.71142 
1575 1 -6.30913 -0.554071 -3.65349 
3186 2 -6.49886 -0.200158 -4.71119 
319 1 -6.35864 0.346747 -3.37569 
1428 1 -5.53489 0.130502 -3.83009 
1343 1 -4.55515 -0.109631 -4.18921 
2601 1 -3.22103 0.0957612 -4.44342 
111 1 -3.73354 -0.378193 -4.22286 
2302 1 -3.38454 -0.602306 -3.46295 
1316 1 -4.06735 0.480515 -3.89936 
3490 2 -2.34226 -0.329981 -3.53301 
3588 2 -2.69609 0.428807 -3.53609 
2241 1 -1.5963 0.180299 -3.95631 
969 1 -2.18925 0.764684 -4.43562 
3500 2 -0.153809 -0.353326 -4.28617 
3555 2 -0.327245 0.386224 -4.09697 
2 1 0.553577 0.274831 -3.32773 
692 1 0.955067 -0.195065 -4.12351 
1296 1 1.27791 0.424187 -3.83906 
2013 1 1.83407 -0.474652 -3.80194 
1700 1 1.94447 0.406949 -3.37839 
506 1 2.53082 0.080136 -3.84528 
76 1 3.28829 0.188207 -4.66936 
2084 1 4.33358 -0.0955268 -4.52002 
3483 2 3.85816 -0.112787 -3.47237 
455 1 4.93906 0.55135 -4.42597 
1548 1 4.89075 0.0465035 -3.67157 
2297 1 6.87307 0.065432 -4.49499 
2902 2 5.80596 -0.356436 -4.21094 
2819 2 6.01236 0.291048 -3.89173 
3263 2 -6.4566 0.547197 -4.67273 
3260 2 -6.43636 1.20237 -4.24739 
817 1 -7.17742 1.38479 -3.15779 
1622 1 7.20147 0.665412 -3.49504 
2423 1 -4.91754 0.90641 -4.14133 
1627 1 -5.71156 1.08315 -3.39875 
1607 1 -5.52231 1.68527 -4.4651 
2278 1 -5.2844 1.82984 -3.64387 
1793 1 -3.99636 1.16464 -3.54596 
882 1 -3.47136 1.02376 -4.26683 
1910 1 -2.42916 1.63348 -4.37063 
14 1 -1.50817 0.860869 -3.49547 
3196 2 -0.505277 2.096 -3.73711 
1002 1 -1.68209 1.54771 -3.84454 
549 1 0.645721 1.12615 -3.5169 
2406 1 0.748351 0.771293 -4.3441 
2950 2 -0.580662 1.20045 -3.90551 
2328 1 0.381158 1.71043 -4.22426 
258 1 0.322143 1.8657 -3.10386 
130 1 1.48919 1.27663 -3.24873 
583 1 2.78319 0.666824 -4.45054 
254 1 2.44165 1.98191 -3.97886 
620 1 2.34473 1.16487 -3.66729 
296 1 4.00453 0.703211 -4.34761 
3305 2 3.37185 0.494524 -3.33722 
1364 1 3.31642 1.27126 -4.36022 
556 1 4.2386 1.52574 -4.05137 
2637 1 4.96113 1.45449 -4.64226 
840 1 4.66018 0.920585 -3.45562 
3209 2 5.75174 1.01483 -3.98001 
3369 2 5.41968 1.82523 -3.63459 
698 1 6.65672 1.5367 -3.65133 
823 1 6.85075 0.901627 -4.23012 
1913 1 -5.98345 2.10402 -3.0582 
3033 2 -6.69011 1.88563 -3.94672 
2751 2 -6.83993 2.67436 -4.03472 
35 1 -5.75806 2.71835 -3.96582 
978 1 -4.92198 2.80624 -3.48815 
2529 1 -3.65358 2.23827 -4.09521 
1783 1 -3.95165 3.24303 -3.79933 
2311 1 -4.43921 1.99415 -3.50457 
2436 1 -2.8224 3.19466 -4.001 
154 1 -2.5183 2.44303 -4.16035 
2563 1 -2.25446 3.3982 -3.26468 
1132 1 -1.72503 3.08846 -4.50687 
2860 2 -1.05617 2.70751 -3.64915 
1661 1 -1.70208 2.23017 -4.52744 
2030 1 -2.01164 2.55104 -3.42334 
2442 1 0.567824 2.58541 -3.8335 
3241 2 1.31192 2.01974 -4.2273 
3063 2 1.53909 2.78445 -4.44474 
1012 1 1.02946 2.21994 -3.22306 
414 1 1.91535 2.1044 -3.34424 
946 1 2.66286 2.95521 -4.16835 
613 1 3.30459 2.24242 -4.05224 