ITEM: TIMESTEP
41700
ITEM: NUMBER OF ATOMS
3594
ITEM: BOX BOUNDS pp pp pp
-7.1981006197112825e+00 7.1981006197112825e+00
-7.1981006197112825e+00 7.1981006197112825e+00
-7.1981006197112825e+00 7.1981006197112825e+00
ITEM: ATOMS id type x y z 
639 1 6.997 -5.72888 -6.46065 
1273 1 -6.48785 6.85859 -6.76798 
2706 1 -6.22659 -6.48083 -6.15139 
239 1 -5.68956 -6.71281 -6.8965 
52 1 -5.54502 6.85961 -7.05824 
1235 1 -3.4697 6.52981 -6.96197 
2002 1 -3.52718 -7.12835 -6.50985 
2546 1 -4.87797 -6.91747 6.953 
3574 2 -2.6775 -6.58528 -6.59664 
2083 1 -1.69203 -6.2496 -7.09002 
2630 1 -1.06508 -6.05269 -5.9311 
1567 1 -1.18496 -6.968 -6.36326 
1893 1 -1.33792 7.04544 -7.00317 
245 1 -0.635542 -5.15226 -5.70636 
1663 1 0.49211 6.96153 -6.83871 
1122 1 0.504688 -6.42278 -6.65372 
2599 1 1.22318 -6.14893 -6.97176 
2024 1 2.07929 -6.78908 -6.89949 
2627 1 2.541 -7.15417 -6.03207 
3442 2 3.08056 -5.90737 -6.04415 
3587 2 3.46934 -6.62959 -6.33096 
1836 1 2.17596 -5.74288 -6.93451 
1905 1 2.88922 -6.40937 -7.09687 
1530 1 3.85738 -5.55962 -6.91886 
932 1 4.16428 -5.45391 -5.80348 
1417 1 3.66547 -6.41719 6.91241 
1896 1 4.42403 -6.04038 -6.44424 
3208 2 5.7283 -6.34683 -6.85921 
2787 2 5.56622 -7.18915 -6.88183 
2582 1 -7.04572 -6.62403 -6.58611 
1697 1 6.62936 -5.81076 7.13585 
3029 2 -7.03727 -4.68455 -7.07775 
2535 1 -6.18979 -4.86047 -6.30384 
1263 1 -5.8178 -5.54114 -6.75516 
392 1 -4.55436 -6.00989 -6.80404 
335 1 -4.96897 -5.23398 -6.62197 
2459 1 -3.92596 -6.91279 7.10345 
2516 1 -3.85696 -6.34874 -6.183 
1020 1 -4.10216 -5.28354 -6.95599 
2981 2 -2.95194 -5.79782 -6.47665 
3061 2 -3.11524 -4.98077 -6.32762 
890 1 -2.26785 -5.25662 -7.10059 
786 1 -1.9967 -4.57713 -6.63334 
2368 1 -1.79231 -5.63686 -6.3733 
3484 2 -0.706457 -5.21681 -6.91128 
2808 2 -1.0267 -4.43287 -6.89718 
2453 1 0.0625656 -5.61164 -6.31573 
2246 1 0.518315 -4.87541 -6.74987 
632 1 0.874823 -4.37738 -6.31167 
774 1 1.2107 -5.24026 -6.60082 
1587 1 1.66457 -4.58423 -6.01059 
2957 2 2.92164 -5.22523 -6.01538 
329 1 2.45835 -3.5808 -7.06643 
2623 1 2.15129 -4.82352 -6.71444 
498 1 3.15142 -5.29063 -7.12513 
362 1 4.04934 -4.96508 -6.50665 
2812 2 5.32569 -5.63559 -6.70035 
3212 2 5.16376 -4.89304 -6.37243 
916 1 6.21612 -5.53004 -5.97571 
2500 1 6.24394 -5.08397 -6.66894 
2727 1 -6.66423 -4.71577 -5.58647 
572 1 -7.18841 -5.08076 -6.05774 
2022 1 -6.17534 -3.94087 -7.12651 
2975 2 7.04799 -4.07135 -6.793 
1445 1 -5.21512 -4.25197 -6.51354 
316 1 -6.4978 -4.46953 -4.83008 
1640 1 -5.4624 -3.33164 -6.53059 
1477 1 -3.95087 -4.36306 -5.54585 
2869 2 -3.48626 -3.29005 -6.00525 
3041 2 -3.08593 -4.1816 -6.13546 
937 1 -4.29909 -4.42969 -6.59571 
2439 1 -1.97877 -3.92527 -5.81301 
2549 1 -2.41243 -3.84117 -6.93187 
3332 2 -1.01612 -3.62046 -6.63255 
3234 2 -1.45779 -2.84024 -6.49541 
1333 1 0.0681858 -3.81842 -6.8053 
2631 1 -0.267696 -3.88014 -5.90282 
1050 1 -0.0433614 -4.64239 -6.15665 
250 1 0.0152899 -2.91013 -6.31924 
541 1 0.932122 -2.71858 -5.91946 
1313 1 0.766558 -3.53485 -6.16942 
2709 1 1.82288 -3.95022 -6.56151 
309 1 2.95337 -3.02532 -6.62496 
2256 1 3.22092 -4.36187 -6.81247 
190 1 4.31453 -3.46886 -7.17489 
2415 1 5.09063 -3.09453 6.88121 
3266 2 4.9136 -4.11578 -6.45564 
205 1 5.49507 -3.8059 7.08644 
274 1 6.06581 -4.29929 -6.67342 
153 1 6.77631 -4.22728 -5.80634 
2211 1 6.14166 -3.46772 -6.47391 
79 1 -6.56318 -3.5737 6.47794 
2114 1 -6.26745 -2.33213 -6.13008 
2721 1 -6.45082 -4.01921 -6.21985 
2543 1 -6.18303 -2.79676 7.07328 
41 1 -5.26123 -2.53964 -6.21591 
2137 1 -6.30762 -3.23211 -6.38234 
88 1 -4.69936 -3.76095 -5.96638 
2661 1 -4.53738 -2.94167 -6.44408 
1835 1 -3.99959 -2.57442 -7.10245 
18 1 -4.53259 -1.88536 -6.32849 
911 1 -2.80675 -2.98027 -7.09396 
743 1 -3.99411 -1.73102 -7.0021 
2262 1 -2.59486 -2.77351 -6.29652 
323 1 -3.24343 -2.29103 -6.80962 
2844 2 -3.84988 -2.65209 -5.67367 
3105 2 -1.44795 -2.07421 -6.2936 
607 1 -0.622968 -2.94872 -5.63051 
502 1 -0.355614 -2.29212 -6.91586 
400 1 1.56114 -1.10151 -6.21236 
2804 2 0.735119 -2.05402 -6.93626 
2628 1 1.67587 -2.99089 -6.39185 
628 1 0.103029 -2.17994 -5.89854 
2050 1 2.26633 -2.45452 -6.67281 
2645 1 3.20032 -2.16146 -6.3605 
850 1 3.68557 -3.08169 -6.13964 
847 1 3.99028 -2.51183 -6.99167 
2767 2 4.80385 -3.33247 -6.19957 
3550 2 4.63897 -2.59242 -6.00321 
1373 1 5.81879 -2.61935 -6.15235 
1834 1 5.6578 -2.93977 -6.9282 
1597 1 6.7162 -3.27748 -5.908 
3126 2 7.08853 -3.26063 -6.92733 
3087 2 6.89694 -2.52323 -6.69998 
2360 1 -6.88008 -1.68193 -5.77327 
56 1 -5.12637 -1.88621 -5.55362 
90 1 -6.57976 -2.01756 -6.94859 
3360 2 -5.56899 -1.1066 -7.02843 
1224 1 -5.76131 -0.729544 -5.63771 
1928 1 -4.93212 -1.1219 -6.13421 
1112 1 -3.52367 -1.25726 -6.40537 
2601 1 -4.36023 -1.4903 6.68416 
913 1 -2.70017 -2.00628 -5.91635 
667 1 -2.69703 -1.32162 -6.51095 
3200 2 -1.77197 -1.29624 -6.13481 
2796 2 -1.84789 -0.380196 -5.91234 
2042 1 -0.494225 -1.58216 -6.52759 
2390 1 -0.935729 -0.923547 -6.99468 
3088 2 0.521736 -0.633255 -6.76452 
3151 2 0.593977 -1.39863 -6.75491 
919 1 1.8592 -1.18665 -6.98673 
1770 1 1.15836 -1.44431 6.53215 
1418 1 2.48471 -1.4733 -6.34242 
1859 1 2.34792 -0.519533 -6.29417 
303 1 4.04209 -1.5562 -6.77512 
388 1 3.29075 -0.932448 -6.35034 
2972 2 4.52027 -1.83943 -5.91317 
2122 1 5.47618 -1.69658 -6.23812 
42 1 5.8088 -1.65764 -7.12373 
2510 1 4.85583 -1.50918 -6.9656 
1987 1 5.45153 -0.810676 -6.5364 
2840 2 6.6524 -1.86891 -6.5279 
2797 2 6.60423 -1.23044 -6.19636 
519 1 -6.62993 -0.776597 -6.28865 
385 1 -6.95325 0.462685 -6.28327 
2066 1 -6.88853 -0.0639723 -7.03157 
3097 2 -5.76916 -0.36447 -6.87661 
3127 2 -5.71261 0.494291 -6.75151 
2699 1 -4.37509 -0.911071 -6.90545 
1001 1 -4.01156 -0.163328 -6.27847 
415 1 -4.62826 0.309768 -6.83501 
433 1 -3.6232 0.502224 -6.1096 
2326 1 -2.43071 -0.392634 -6.82966 
28 1 -2.7956 0.474921 -6.62969 
1635 1 -3.15787 -0.357751 -6.4501 
1661 1 -1.10977 -0.0377315 -6.96701 
1265 1 -1.69966 1.24581 -6.60577 
2939 2 -1.90818 0.427123 -5.93154 
994 1 -0.552327 -0.457209 -6.33324 
3311 2 0.386981 0.0976369 -6.44413 
2708 1 1.5638 -0.072634 -6.72001 
2730 1 2.32711 0.442969 -6.04896 
3195 2 2.5462 0.116229 7.19049 
453 1 3.86327 -0.0264423 -6.69382 
1085 1 3.1525 0.0391557 -5.934 
2418 1 3.59784 0.934857 -6.48783 
2072 1 4.66864 -0.642691 -6.86979 
1362 1 4.61609 0.351449 -6.76452 
2380 1 5.4455 -0.377278 -5.86303 
478 1 5.51041 0.0829678 -7.10803 
3135 2 6.49088 -0.407404 -6.20024 
3038 2 6.4601 0.408151 -6.18143 
3140 2 -6.24835 2.01703 -6.35447 
668 1 -6.57555 1.09757 -5.59915 
1607 1 7.18944 1.57282 -6.35416 
3007 2 -6.05281 1.23099 -6.66144 
1335 1 -4.85747 1.15664 -7.14032 
2560 1 -5.06896 0.738926 -6.07043 
1232 1 -5.06995 1.80223 -6.6114 
1336 1 -4.25508 0.97949 -6.31701 
83 1 -3.97169 1.81119 -5.92806 
3093 2 -3.85442 1.84827 -7.1776 
964 1 -3.31934 1.37073 -6.32325 
1053 1 -2.51819 1.32014 -6.71581 
287 1 -1.79741 2.08478 -6.45738 
1255 1 -0.947425 0.666358 -6.48282 
1745 1 -0.409132 0.221687 7.11909 
2928 2 0.162169 0.864332 -6.33272 
3078 2 0.0456255 1.76004 -6.01643 
1619 1 -1.02076 1.32294 -7.05138 
1695 1 0.958318 0.867856 -7.02221 
2712 1 1.47776 0.477497 -5.98181 
1708 1 1.22757 1.24479 -6.3714 
2150 1 1.85673 1.31714 -5.77705 
2960 2 2.40976 0.957233 -6.93616 
3459 2 2.29272 1.75901 -6.80138 
312 1 3.60923 2.00569 -6.26022 
970 1 4.45827 1.23166 -6.42349 
1876 1 2.89328 1.51877 -5.96248 
366 1 5.16882 0.387663 -6.09794 
1414 1 5.48123 0.963091 -6.87146 
795 1 5.2065 1.73388 -6.46954 
1185 1 6.33907 1.31233 -7.15053 
3465 2 -6.21966 2.78373 -6.37156 
2736 2 -6.31337 3.62801 -6.17519 
625 1 -7.07261 2.79303 -7.08031 
822 1 -5.10932 2.76647 7.03654 
1318 1 -5.80225 1.868 6.74046 
1353 1 -4.66513 2.54589 -5.76466 
2783 2 -4.10849 2.41183 -6.75215 
3408 2 -4.09268 3.10613 -6.88788 
2275 1 -2.78641 2.01451 6.86185 
2576 1 -2.86513 2.1793 -6.60891 
353 1 -2.79025 2.75947 -7.18549 
1394 1 -2.70235 3.74966 6.41356 
1525 1 -0.961037 1.79671 -6.39504 
1517 1 -2.27524 2.8672 -6.27832 
757 1 -0.944232 2.67333 -6.675 
3444 2 -0.304244 2.56607 -5.7199 
1932 1 0.568757 2.74477 -6.99719 
2304 1 0.219176 3.91165 -6.71278 
2080 1 0.971673 1.87012 -7.14418 
497 1 0.936674 3.49621 -7.02676 
3417 2 1.85263 3.14672 -6.56397 
3393 2 2.04713 2.36432 -6.46171 
1677 1 2.90314 2.46701 -5.85198 
2068 1 4.27583 2.39004 -6.14578 
1218 1 3.18193 2.72753 -6.85267 
1068 1 3.59506 3.03395 -6.14895 
805 1 4.68499 1.80994 -5.81564 
2597 1 5.3501 2.64918 -6.61099 
115 1 5.73169 1.96674 -7.19753 
2061 1 6.56743 2.20558 -6.66292 
3238 2 -6.64584 4.32124 -5.82635 
536 1 -5.76075 3.54887 7.0633 
213 1 7.10579 3.53287 -6.72593 
443 1 -5.20278 3.81842 -6.50583 
2045 1 -5.58781 4.57454 -6.60969 
3411 2 -4.17961 3.87311 -6.65772 
912 1 -3.01382 3.32244 -6.17364 
223 1 -3.05645 3.75051 -6.93941 
1370 1 -1.42534 2.85785 -5.80976 
920 1 -1.02369 3.54483 -6.63766 
1933 1 -0.232033 3.06588 -7.12906 
686 1 -2.14563 3.73568 -6.32597 
2285 1 -0.34085 4.49609 -6.65095 
693 1 1.06021 2.79818 -5.46378 
3466 2 1.93455 4.63635 -6.39084 
1080 1 0.835289 3.96927 -5.88554 
1113 1 3.77458 4.33583 -5.91574 
3478 2 1.81046 3.89222 -6.40868 
591 1 2.93198 3.52262 -6.47776 
725 1 2.61952 3.94426 7.07328 
3551 2 3.98486 4.07023 -6.93891 
284 1 5.25096 3.65289 -6.18642 
2530 1 4.80211 3.05444 -6.09576 
2086 1 4.87631 4.63232 -6.06019 
2685 1 6.2663 2.98235 -6.71138 
760 1 7.0532 4.36097 -6.85254 
2707 1 6.97297 2.78789 -5.92885 
862 1 6.92526 3.73789 -5.75881 
317 1 -5.80355 5.30899 -6.94885 
1872 1 -5.70962 6.19953 -6.04212 
3463 2 -4.33536 5.47202 -6.24395 
1845 1 -5.46725 5.28301 -6.09983 
3471 2 -4.34843 4.67533 -6.55472 
2446 1 -2.68567 5.24652 -5.89888 
507 1 -3.54735 3.83896 -5.76608 
1004 1 -3.14775 4.99623 6.5082 
3454 2 -2.32864 5.62968 -7.1105 
341 1 -1.90409 4.67374 -5.97867 
601 1 -2.9618 4.52962 -6.32583 
2832 2 -2.25038 4.91103 -7.16405 
175 1 -1.17604 4.42506 -6.31767 
1881 1 -1.38444 5.61452 -6.31104 
2524 1 -1.05568 4.88305 -6.95301 
1252 1 -0.925706 4.89711 6.56246 
1773 1 0.376908 5.14247 -6.21599 
324 1 0.761076 4.82184 -5.58587 
2675 1 0.949823 5.22533 -6.85753 
1924 1 0.387678 5.88156 -5.89286 
3138 2 1.81357 5.39569 -6.20264 
2261 1 0.833847 4.48278 -6.66038 
703 1 3.06152 4.44863 -6.6382 
96 1 2.84258 6.0438 7.11786 
255 1 3.29713 5.29575 -5.72666 
3223 2 4.13329 4.86702 -6.93887 
3215 2 3.84773 5.45602 -6.60371 
2568 1 5.16638 5.10162 -7.0938 
2711 1 5.71296 4.61476 -6.37763 
2142 1 6.19181 3.79649 -6.35853 
2483 1 4.74687 5.78098 -5.98644 
1410 1 6.83923 5.26819 -6.35679 
1616 1 6.44312 4.65443 -6.14659 
297 1 -5.58441 6.66794 -5.28542 
2594 1 -6.49255 5.80755 -6.84725 
558 1 7.15 6.88243 7.10088 
1117 1 -5.85337 7.14717 -6.03042 
3477 2 -4.69835 7.16516 -6.31549 
3150 2 -4.52197 6.35899 -6.30168 
1391 1 -3.35817 5.53778 -6.38101 
2944 2 -2.45509 7.06586 -6.81538 
3268 2 -2.41244 6.33343 -6.90737 
225 1 -0.277332 5.50346 -6.66469 
1747 1 -0.982758 6.30237 -6.55707 
1356 1 -0.430556 7.13511 -6.38312 
1767 1 -0.193604 6.2698 -6.43097 
1521 1 0.660838 6.03731 -6.83169 
2492 1 2.24334 6.72924 -7.16472 
2899 2 1.38819 7.02127 -5.97443 
2831 2 1.52153 6.17739 -6.2256 
748 1 1.25272 -7.0189 -7.1252 
2212 1 2.85145 5.42301 -6.52101 
3569 2 3.5528 7.02493 -6.40895 
2790 2 3.75223 6.22192 -6.48532 
1970 1 4.84853 6.0984 -6.90998 
1965 1 5.66086 5.58678 -6.35088 
302 1 4.61911 6.95744 -6.80111 
522 1 5.684 6.5667 -6.00902 
1727 1 7.07766 6.13611 -6.65585 
1345 1 -6.47332 -5.80513 -6.33508 
1291 1 -6.14743 -6.38586 -5.21201 
1184 1 -6.27963 -7.18558 -4.5652 
3520 2 -4.92422 -6.47757 -5.9659 
698 1 -5.35556 -6.94644 -4.97344 
2533 1 -5.52018 -6.00346 -4.59678 
2462 1 -4.28199 6.95521 -4.39039 
1149 1 -4.02772 -6.93247 -5.46447 
959 1 -3.26526 -6.0564 -5.30687 
1506 1 -2.4388 -6.47833 -5.4588 
1406 1 -4.24499 -5.69097 -4.89635 
833 1 -3.11032 -7.04067 -5.77059 
1643 1 -1.67633 -6.43566 -6.14884 
3594 2 -1.1687 -6.57851 -4.88848 
1689 1 -0.124085 -5.89954 -5.54688 
1385 1 2.03493 -6.47962 -6.10969 
2978 2 0.98588 -6.73349 -5.8044 
3128 2 0.920994 -5.77744 -5.71477 
2096 1 1.88252 -6.10316 -4.99354 
2429 1 1.72729 -6.98163 -4.80609 
1211 1 2.439 -6.57204 -5.35042 
1882 1 3.0704 -6.12741 -4.93477 
924 1 4.17263 -6.45014 -5.44006 
1985 1 5.24933 -6.98152 -5.71013 
1311 1 4.64314 -6.79937 -6.10203 
3290 2 5.10445 7.18836 -4.7449 
13 1 6.49881 -6.39336 -6.17313 
3487 2 7.02827 -6.29467 -5.23799 
1399 1 6.64765 6.94894 -6.40392 
695 1 -6.33574 -5.60178 -5.35603 
2176 1 -5.03685 -5.33215 -4.28671 
3416 2 -5.22564 -5.77373 -5.76644 
3325 2 -5.30627 -4.99638 -5.59533 
2321 1 -4.14382 -5.35403 -5.76169 
977 1 -3.19177 -5.19321 -5.21695 
1984 1 -2.30455 -5.75977 -5.5685 
897 1 -2.25194 -4.81282 -5.59106 
1979 1 -2.635 -5.21005 -4.65617 
427 1 -2.39253 -5.9765 -4.58839 
2626 1 -1.48486 -5.08682 -5.98111 
1127 1 -0.51558 -4.4846 -4.75443 
3322 2 -1.36482 -5.69082 -4.84831 
3480 2 -1.45363 -4.87103 -4.76819 
1931 1 -0.170615 -5.45604 -4.77102 
224 1 0.574761 -5.32189 -4.25703 
2537 1 1.89511 -5.0326 -5.21999 
2826 2 0.666733 -4.93259 -5.35906 
19 1 1.43586 -5.41076 -4.53218 
811 1 2.63933 -4.50197 -4.61256 
1442 1 1.93996 -5.72412 -5.87853 
1425 1 3.21302 -5.20802 -4.84732 
248 1 3.91964 -5.67558 -5.0753 
893 1 4.83617 -5.8937 -5.56742 
589 1 5.67891 -6.02016 -5.6528 
2539 1 4.95572 -4.96152 -5.2829 
452 1 5.64217 -5.47316 -5.10513 
2015 1 6.08276 -4.72255 -5.80772 
2828 2 6.90521 -5.62261 -4.99287 
3010 2 6.77065 -4.90525 -4.88178 
1851 1 -6.71574 -3.4545 -4.60876 
2912 2 -5.54676 -4.14279 -5.53033 
2737 2 -5.71807 -3.34331 -5.37007 
1392 1 -5.01967 -3.69688 -4.44244 
523 1 -3.41448 -3.94321 -4.82263 
1140 1 -3.00888 -3.22352 -4.25836 
1361 1 -4.43112 -4.60344 -4.90611 
386 1 -2.89101 -3.26611 -5.12415 
2044 1 -2.69095 -4.37408 -5.03482 
3285 2 -1.79531 -4.0475 -4.4552 
842 1 -1.04243 -4.3428 -5.67443 
922 1 -1.39189 -3.33455 -5.46095 
486 1 -0.163894 -4.79937 -4.09492 
3068 2 0.719519 -4.22613 -4.98706 
2058 1 -0.813777 -3.77671 -5.11921 
2768 2 0.345457 -3.56905 -5.15585 
1538 1 1.51326 -3.64335 -5.81867 
1837 1 1.56517 -4.50881 -4.40802 
2520 1 1.32935 -2.87671 -5.24087 
2933 2 2.91055 -4.48253 -5.79075 
1234 1 1.74826 -4.09122 -5.15499 
3249 2 2.64639 -3.76715 -5.7801 
1416 1 3.60125 -4.33318 -4.7868 
779 1 3.83083 -3.89759 -6.28002 
26 1 3.46162 -3.51357 -6.92826 
1215 1 3.69083 -3.19813 -4.71148 
1322 1 5.8489 -3.92321 -5.78269 
1415 1 4.0534 -4.55344 -5.6046 
2670 1 -6.9066 -3.69634 -5.45531 
3173 2 6.48675 -3.56953 -4.86826 
3080 2 6.74615 -4.28531 -4.55827 
2306 1 5.49833 -3.08045 -5.21786 
1444 1 -6.82484 -2.64761 -4.93285 
2126 1 6.8176 -2.21863 -5.14877 
2890 2 -5.84994 -2.62637 -5.01674 
2974 2 -5.88842 -1.81994 -4.97111 
477 1 -4.81087 -2.91118 -5.44908 
1671 1 -3.36234 -2.43503 -4.45337 
2320 1 -4.36835 -3.64559 -4.87276 
2480 1 -3.92091 -3.00307 -4.64321 
3543 2 -3.89743 -1.87276 -5.62516 
1629 1 -1.96741 -2.06211 -5.26913 
484 1 -2.77167 -2.40859 -5.13729 
1087 1 -2.26852 -3.00617 -5.55409 
2263 1 -0.909442 -2.84918 -4.52882 
858 1 -1.3066 -2.52276 -5.12542 
3227 2 0.20983 -2.80813 -4.94717 
527 1 -0.63995 -1.9303 -5.65164 
3430 2 0.17577 -2.03715 -4.81937 
1644 1 1.28267 -2.03217 -5.35058 
1967 1 2.13387 -3.54466 -4.5632 
3014 2 2.42779 -3.01062 -5.68245 
2830 2 2.39266 -2.20344 -5.46912 
85 1 3.49897 -2.61686 -5.41838 
1830 1 3.7706 -1.65088 -4.73801 
1275 1 3.20738 -2.53038 -4.58811 
1527 1 3.63323 -3.50667 -5.51372 
1372 1 4.36168 -3.66965 -5.06842 
1841 1 4.38238 -2.67514 -4.96686 
873 1 5.44823 -2.17677 -5.07007 
2101 1 6.35284 -2.66657 -5.55926 
2858 2 6.53808 -3.00353 -4.39413 
148 1 -6.93944 -2.83273 -5.70953 
2993 2 -6.32851 -1.29316 -4.87958 
802 1 -6.93809 -0.831469 -5.57168 
874 1 -4.8078 -2.32303 -4.7349 
1781 1 -5.08432 -1.19155 -5.24193 
3256 2 -3.89656 -1.00746 -5.421 
594 1 -3.01316 -1.66175 -4.76959 
965 1 -2.81198 -1.05687 -5.50114 
2241 1 -2.63501 -0.873049 -4.61306 
2139 1 -0.890383 -1.84622 -4.91326 
2465 1 -1.84231 -1.30955 -5.1649 
460 1 -0.868964 -0.849426 -5.27437 
154 1 0.886066 -1.56038 -5.746 
3354 2 0.14992 -1.32593 -4.57644 
76 1 0.00758309 -0.0862794 -5.43223 
1897 1 1.62575 -2.03027 -6.28753 
2298 1 0.503193 -0.780869 -5.52761 
2411 1 1.60926 -2.03084 -4.40432 
3356 2 2.34921 -1.4957 -5.20543 
296 1 3.27542 -0.742312 -5.28989 
40 1 3.45833 -1.66145 -5.81354 
656 1 3.14006 -1.10442 -4.52482 
2995 2 4.40191 -0.930627 -5.74452 
2074 1 5.43779 -1.13236 -5.18874 
499 1 4.1724 -0.847216 -4.67085 
304 1 6.05473 -1.6414 -5.4918 
1483 1 6.05127 -0.313551 -5.17804 
3267 2 -6.11 -0.626254 -4.56594 
3186 2 -6.52564 -0.0176303 -4.44438 
408 1 -4.98273 -0.246889 -6.07524 
2605 1 -5.95424 -1.44765 -6.09617 
1953 1 -5.22168 -0.0969649 -5.09648 
3144 2 -4.05746 -0.323292 -5.28381 
2861 2 -4.22809 0.469044 -5.20374 
2108 1 -2.9005 -0.219273 -5.5534 
174 1 -1.82315 -0.592241 -4.88255 
596 1 -3.1605 -0.281735 -4.51261 
2466 1 -3.06387 0.530948 -4.87608 
2846 2 -1.97353 1.19377 -5.57627 
2589 1 -1.29714 0.208601 -5.06953 
2609 1 -0.748892 -0.0736148 -5.63368 
1489 1 -0.101699 -1.26105 -5.77987 
1971 1 -0.0417294 0.68991 -5.13091 
2600 1 1.26076 -0.492312 -5.75189 
2187 1 0.798701 0.491814 -5.25414 
3449 2 1.91628 0.0108558 -4.97033 
3557 2 2.16538 -0.724045 -5.31326 
130 1 3.02083 0.0821763 -4.94907 
3317 2 4.28764 -0.153913 -5.75099 
2848 2 4.07517 0.577058 -5.45613 
167 1 3.73027 -0.193826 -4.71163 
556 1 5.40634 0.26816 -5.20179 
1472 1 4.98363 -0.219419 -4.66466 
2617 1 7.17626 0.0357651 -5.17702 
1883 1 6.4624 0.370814 -4.77948 
1369 1 6.95732 -0.675643 -4.68013 
1927 1 7.05024 0.993701 -5.13185 
1207 1 -6.24135 1.80181 -5.2079 
2037 1 -5.88912 0.374517 -5.49533 
670 1 -6.48979 -0.0498462 -5.79167 
1910 1 -4.79227 1.70472 -5.89699 
2436 1 -5.50223 0.870062 -4.77598 
3062 2 -4.43469 1.16364 -4.88005 
1772 1 -2.86691 0.573753 -5.72312 
3117 2 -2.46497 1.89714 -5.50408 
803 1 -3.53212 1.48701 -5.46065 
2945 2 -2.35934 2.62165 -5.21306 
883 1 -0.758476 0.935383 -5.73215 
1894 1 -1.65767 1.44459 -3.96504 
1623 1 -1.36923 0.971734 -4.71665 
603 1 -0.538863 1.44554 -5.10385 
1065 1 0.666468 0.749438 -4.3726 
941 1 1.44195 2.09258 -5.50904 
3383 2 1.79551 0.7864 -4.60093 
2673 1 0.996993 1.3912 -5.53334 
110 1 2.47993 1.94558 -5.33607 
851 1 2.73268 0.890499 -5.27523 
3364 2 3.82202 1.32843 -5.26719 
2276 1 5.88776 1.12264 -4.68606 
194 1 5.06855 1.0903 -5.57406 
50 1 6.98731 1.6696 -4.75404 
82 1 4.78355 1.76541 -4.67071 
613 1 6.02129 1.99726 -4.57608 
34 1 7.08836 1.99753 -5.45633 
3060 2 6.21893 1.02872 -5.83188 
817 1 -5.44016 1.53993 -5.41831 
1331 1 -6.59052 2.50684 -5.39944 
1169 1 -5.75126 2.63811 -4.86245 
1238 1 -5.49674 2.40236 -5.59347 
1725 1 -5.49883 1.8779 -4.46905 
1446 1 -4.09412 3.26562 -5.68285 
3456 2 -4.70772 2.87661 -4.62509 
2318 1 -3.34428 2.54266 -6.00049 
2845 2 -4.49194 2.00827 -4.74803 
2977 2 -2.30535 3.33077 -5.11685 
159 1 -1.28561 1.82493 -4.75552 
330 1 -1.23888 2.05009 -5.67526 
1257 1 -1.86064 3.55495 -4.23439 
2813 2 -0.339637 3.27246 -5.83623 
46 1 -1.27693 2.64698 -4.86736 
620 1 0.177909 2.97536 -4.59182 
1817 1 0.972934 2.29672 -6.31784 
2463 1 0.72003 3.15198 -6.07036 
1368 1 0.566438 2.28212 -5.00243 
1978 1 2.01613 2.91167 -5.30951 
1176 1 2.43964 2.43566 -4.10639 
2575 1 2.63114 2.52355 -4.86234 
3388 2 3.76377 1.99488 -5.08241 
3433 2 3.70655 2.78297 -4.9093 
1092 1 6.19723 3.01094 -4.2113 
377 1 4.80759 2.60388 -5.27645 
3298 2 5.88684 2.42051 -5.66575 
723 1 6.63793 2.57177 -4.85955 
3414 2 5.89937 1.71548 -5.67267 
806 1 -7.14171 3.13365 -5.03844 
131 1 -5.48682 3.55715 -5.29492 
1899 1 -6.22785 3.40206 -4.99941 
35 1 -5.2085 4.47347 -5.60831 
561 1 -4.85827 3.38598 -5.84087 
1691 1 -5.21503 2.72393 -6.55181 
59 1 -3.57687 3.05266 -5.14242 
754 1 -4.45421 4.05649 -5.39117 
2865 2 -2.64729 4.11306 -5.2978 
3458 2 -2.80727 4.85248 -4.90462 
673 1 -1.35945 3.74209 -5.9466 
1098 1 -1.01548 3.38668 -4.81534 
3378 2 -0.210631 3.9987 -5.50369 
867 1 0.765509 3.57659 -5.09334 
2542 1 1.60483 3.67332 -5.31388 
23 1 2.6461 3.37062 -5.65369 
899 1 2.33645 5.17671 -5.29562 
16 1 4.31864 5.19054 -5.4631 
2814 2 3.49786 4.26502 -4.79636 
2894 2 3.55028 3.57364 -5.08977 
221 1 4.47565 3.94004 -5.92185 
2433 1 4.68022 3.37937 -5.21295 
2147 1 5.62355 3.59305 -4.26659 
2917 2 5.98372 3.21226 -5.42849 
2927 2 5.76065 4.00154 -5.10629 
2414 1 -6.95064 4 -4.91245 
3045 2 -6.57284 5.08222 -5.86237 
3147 2 -6.72086 5.82755 -5.76204 
1229 1 -5.97813 4.4458 -4.97962 
29 1 -5.64037 5.29495 -5.17703 
929 1 -6.90447 4.98131 -4.83775 
942 1 -4.62755 5.19123 -5.23528 
1733 1 -4.28708 6.07345 -4.9792 
587 1 -3.63163 5.6432 -5.57658 
1481 1 -3.6798 4.70981 -5.65845 
2988 2 -2.81465 5.64991 -4.7588 
2635 1 -2.11757 5.91688 -5.89545 
2603 1 -1.60872 5.03549 -5.41459 
3207 2 -0.677799 5.56411 -5.67494 
345 1 -1.52026 4.16871 -5.26206 
3392 2 -0.374726 4.74943 -5.59829 
1505 1 0.30262 5.43249 -5.00747 
371 1 1.64527 4.5731 -5.27236 
301 1 1.24159 6.46006 -4.83975 
84 1 1.21535 5.5575 -5.37762 
2379 1 2.94373 4.49282 -5.79134 
849 1 2.85321 6.05985 -5.61824 
2762 2 3.30785 5.13817 -4.76314 
2678 1 4.71956 6.60255 -5.91799 
2088 1 4.66043 5.39497 -4.71646 
709 1 3.95653 6.18552 -5.34979 
376 1 4.50233 4.47473 -5.00182 
3257 2 5.55465 4.71264 -5.33587 
2971 2 5.58677 5.54795 -5.21114 
1667 1 6.66322 5.42774 -5.48158 
1200 1 6.82641 4.61355 -5.17222 
1153 1 7.07468 5.74167 -4.66677 
1939 1 -6.95804 6.50281 -4.51622 
3330 2 -6.79268 6.62714 -5.6296 
2747 2 -7.01604 -6.98585 -5.4425 
2288 1 -6.12013 6.18224 -4.91403 
2033 1 -4.60666 6.89081 -5.19571 
2473 1 -5.11641 6.00199 -5.46845 
278 1 -3.83461 6.58221 -5.42222 
2248 1 -3.3394 6.34751 -6.15069 
3265 2 -2.90575 6.44964 -4.84374 
1346 1 -1.64304 6.70688 -6.07921 
1775 1 -1.79244 6.11592 -5.10046 
197 1 -2.60641 6.58571 -5.85564 
1308 1 -2.05808 7.12 -5.30752 
3018 2 -0.801081 6.26955 -5.41451 
3455 2 -0.953111 7.09838 -5.21978 
1639 1 0.294787 6.77029 -5.89265 
1093 1 -0.319867 -6.52988 -6.13335 
1848 1 0.372333 6.37755 -4.93793 
586 1 1.75896 6.69908 -4.13951 
1878 1 1.99949 6.02878 -5.23378 
2048 1 2.20536 6.79387 -5.22526 
696 1 3.07391 6.79875 -5.37344 
1935 1 2.65692 6.42167 -6.38657 
798 1 3.4234 -7.02642 -5.15271 
244 1 4.24024 6.22191 -4.47661 
189 1 4.25588 7.12714 -5.47959 
2926 2 5.31712 6.40549 -4.9397 
1341 1 6.34368 6.07174 -6.03371 
834 1 5.98474 -6.74296 -3.99237 
655 1 -6.57715 -6.18182 -4.31399 
1664 1 -6.61452 -6.85019 -3.15931 
3375 2 -5.71059 -6.39777 -3.60734 
1551 1 -4.52741 -6.43541 -3.93714 
472 1 -4.47411 -6.47172 -4.82543 
3413 2 -3.40335 -6.59288 -4.15985 
3562 2 -3.42526 -5.78597 -4.08947 
2688 1 -3.85309 6.42644 -3.88608 
2146 1 -4.26708 -7.14694 -3.4793 
1435 1 -2.21746 -6.96271 -4.49612 
202 1 -2.57896 -5.68808 -3.3912 
2310 1 -2.63491 -6.59033 -3.51797 
1499 1 -1.83354 6.54185 -4.38162 
579 1 -1.60751 -7.06791 -3.93471 
1327 1 -0.571255 -5.61335 -3.9445 
1107 1 -0.0667123 -6.38051 -4.6643 
401 1 -0.670549 -6.83812 -3.89506 
3236 2 0.269583 -5.90039 -3.30915 
2669 1 0.14894 -7.05658 -5.18939 
3056 2 0.38668 -6.59877 -3.50961 
949 1 0.913119 -7.19202 -4.64723 
2238 1 1.42911 -6.1597 -4.07282 
2918 2 2.67285 -6.18344 -3.97607 
3303 2 2.6151 -6.89887 -4.16621 
2136 1 3.73965 -6.51373 -4.43132 
2703 1 3.61459 -5.54453 -4.18618 
2315 1 3.85023 6.43254 -3.55884 
1019 1 4.16586 -5.58336 -3.37506 
60 1 3.7435 -7.13155 -3.62192 
610 1 6.04587 -6.61745 -4.91428 
2825 2 4.82697 -6.35944 -4.57594 
1000 1 5.31768 -6.53328 -3.48043 
1871 1 6.21228 7.1959 -5.63015 
98 1 5.86116 -6.00318 -4.42555 
2571 1 -7.09174 -5.66845 -3.80979 
2896 2 -5.92396 -5.57218 -3.37992 
3286 2 -5.96284 -4.70808 -3.33838 
1364 1 6.81916 -6.27934 -4.02928 
2507 1 6.87921 -5.07432 -3.37405 
1994 1 -6.23486 -5.44169 -4.66618 
1182 1 -6.05548 -3.95115 -4.24543 
2674 1 -4.65474 -5.69155 -3.72844 
2323 1 -5.66992 -4.67366 -4.49123 
3536 2 -3.72304 -5.0324 -4.14171 
3376 2 -4.04019 -4.3333 -3.85789 
1144 1 -2.50391 -4.91329 -3.92319 
2038 1 -1.74228 -5.42029 -3.81887 
1585 1 -1.88366 -6.14611 -3.84921 
2052 1 -0.981813 -4.64384 -3.7453 
1799 1 0.871519 -4.5596 -3.79387 
3206 2 0.0555963 -4.48899 -2.84816 
15 1 0.940823 -6.13585 -4.702 
2491 1 1.15428 -5.4258 -3.51075 
2469 1 2.44852 -5.37101 -4.79465 
3379 2 2.31814 -5.42828 -3.73234 
3230 2 2.37099 -4.63702 -3.76407 
1945 1 3.39931 -4.73255 -3.89649 
2566 1 3.27819 -5.19307 -2.98415 
3244 2 4.56205 -4.96251 -4.3696 
3340 2 4.82251 -5.69325 -4.23616 
451 1 5.70237 -4.68812 -4.62659 
997 1 5.38146 -5.51008 -3.5307 
72 1 6.50808 -5.51589 -3.93422 
844 1 -6.58839 -5.01159 -4.09292 
1031 1 -6.68212 -2.69826 -3.93723 
1354 1 -6.78047 -3.63636 -3.93371 
1449 1 -5.95937 -3.05558 -4.06513 
642 1 -5.01999 -4.47139 -3.88009 
3083 2 -3.91916 -3.55067 -3.69963 
127 1 -2.95809 -4.72779 -3.21442 
1086 1 -2.83559 -4.07502 -4.09991 
520 1 -2.85611 -3.6886 -3.2062 
1846 1 -1.93648 -4.4176 -3.40682 
3198 2 -1.99591 -3.25959 -4.35827 
180 1 -2.07829 -3.29088 -3.23579 
1380 1 -0.934818 -3.29568 -3.43097 
1028 1 -1.39751 -2.54445 -3.25119 
1422 1 0.0832137 -3.80595 -4.02852 
840 1 1.17941 -3.10333 -4.43409 
1611 1 0.940611 -3.79281 -3.94462 
2558 1 2.9297 -3.54636 -4.66745 
3015 2 2.15256 -4.03008 -3.24146 
3320 2 1.97166 -3.32808 -3.48438 
1575 1 3.17936 -3.91002 -3.75018 
2857 2 4.49725 -4.2436 -4.11029 
3353 2 4.17668 -3.51529 -3.8677 
346 1 5.28461 -4.10951 -5.16827 
1226 1 5.61168 -3.9133 -4.08893 
2659 1 6.0598 -4.94366 -3.7849 
1428 1 6.47138 -4.05783 -3.53193 
2612 1 -7.02661 -1.97949 -4.50194 
1006 1 -6.41631 -1.48273 -3.69242 
2351 1 -5.90749 -2.12536 -3.91446 
1316 1 -4.93173 -2.91995 -4.21856 
318 1 -5.20072 -1.6676 -4.17016 
3229 2 -4.14523 -2.89621 -3.50135 
3447 2 -4.09402 -2.12266 -3.55847 
228 1 -2.78841 -2.74262 -3.49743 
2766 2 -1.84431 -1.81242 -4.23997 
543 1 -3.59775 -1.90885 -2.43862 
370 1 -1.25825 -1.65782 -3.17888 
2916 2 -2.08897 -2.48551 -4.1552 
1491 1 -0.819209 -3.74681 -4.20653 
2511 1 -0.921724 -1.96954 -3.88277 
111 1 0.549064 -1.66918 -2.8751 
2260 1 0.584947 -1.22829 -2.09636 
749 1 0.27614 -2.21853 -3.62503 
1608 1 0.437338 -3.04388 -3.8785 
984 1 1.07504 -2.47084 -3.99234 
2901 2 1.70421 -2.59851 -3.24693 
566 1 2.11795 -2.65636 -4.46556 
169 1 2.86348 -3.06471 -3.87595 
1653 1 2.73382 -2.21133 -3.38453 
812 1 3.16641 -2.96879 -3.01364 
3134 2 3.97371 -2.73801 -3.84874 
2914 2 3.75558 -2.01932 -3.6657 
1595 1 5.12112 -3.44728 -4.42305 
1340 1 5.02948 -2.56354 -4.26825 
363 1 5.70651 -2.20514 -3.35087 
721 1 5.8881 -3.22773 -3.54719 
1548 1 6.96162 -3.34187 -3.53399 
1326 1 6.94097 -2.04637 -3.69124 
2132 1 6.8327 -1.42718 -5.06865 
2311 1 -6.69891 -0.631696 -3.48597 
2054 1 -5.67164 -1.05046 -3.71715 
1151 1 -4.19517 -0.837288 -4.15427 
1458 1 -4.0858 -1.66419 -4.62763 
2302 1 -3.35381 -1.04784 -4.19768 
412 1 -3.86401 -1.03208 -2.25778 
1579 1 -3.54888 -0.866543 -3.32734 
2508 1 -3.83575 -0.108904 -3.89522 
3470 2 -4.38287 -1.54477 -3.10499 
1285 1 -3.08432 -1.78228 -3.64213 
2748 2 -2.14835 -1.37971 -3.72603 
2789 2 -2.41519 -0.681806 -3.66453 
2105 1 -0.509562 -2.66076 -3.76617 
1195 1 -0.978025 -1.14048 -4.34059 
3585 2 -0.0514153 -0.510789 -4.28861 
904 1 -0.149953 -1.46237 -3.43977 
1239 1 0.883093 -1.53869 -3.8412 
2237 1 0.417907 -0.845597 -3.31317 
75 1 1.24209 -1.07348 -4.86049 
482 1 1.95224 -0.528565 -3.82169 
27 1 2.71648 -1.83748 -4.09851 
1237 1 1.86228 -1.36488 -4.01649 
1300 1 2.69942 -0.490181 -4.24407 
1890 1 2.6696 -1.20704 -3.39407 
3483 2 3.82942 -1.21866 -3.4716 
3305 2 3.62849 -0.457067 -3.66569 
734 1 4.64866 -1.7978 -4.75418 
3116 2 6.11156 -2.19806 -4.25754 
2856 2 5.98026 -1.45806 -4.257 
2363 1 -7.15307 -1.26451 -4.11837 
1999 1 -6.69808 0.292357 -3.3718 
928 1 -5.93764 -0.209679 -3.28089 
2448 1 -5.25163 -0.156529 -4.17179 
1790 1 -4.89796 -0.935917 -4.47052 
697 1 -4.53655 0.304096 -4.13342 
1815 1 -2.70468 -0.107726 -2.57623 
3490 2 -2.68693 0.19231 -3.62812 
1064 1 -2.21684 0.13547 -4.68027 
954 1 -1.58893 0.446912 -3.84501 
1441 1 -1.37417 -0.396068 -4.22323 
3500 2 -0.378937 0.162744 -4.32087 
308 1 0.886169 -0.166028 -4.69924 
393 1 0.605897 0.00850696 -3.46289 
876 1 1.0117 -0.643172 -4.00056 
665 1 3.06319 0.629193 -4.2834 
2460 1 2.27671 0.240817 -3.89373 
1524 1 3.66909 1.18166 -4.02505 
1911 1 4.15984 0.53478 -4.42326 
891 1 4.23692 1.78105 -3.75004 
3394 2 3.5627 0.240249 -3.26921 
1788 1 4.88022 0.90957 -4.70937 
2819 2 5.78988 0.298867 -3.77551 
2021 1 4.80103 -1.15264 -4.21626 
2902 2 6.00116 -0.614979 -4.1294 
1343 1 7.04689 -0.297984 -3.95383 
1568 1 6.71373 0.109813 -3.3165 
2584 1 6.83209 0.754539 -4.03261 
1672 1 6.73292 -0.956668 -3.40147 
3263 2 -6.48686 0.803096 -4.42797 
3260 2 -6.54093 1.5446 -4.21396 
750 1 -7.09943 1.05116 -3.14868 
2010 1 -5.80059 0.355721 -3.71277 
1880 1 -5.12678 1.03367 -3.8385 
521 1 -4.18755 1.15852 -3.62005 
1148 1 -3.1474 1.42579 -4.55153 
2395 1 -3.73208 0.93513 -4.18471 
731 1 -3.67414 1.83227 -3.9212 
1809 1 -3.60955 0.278968 -3.22295 
640 1 -2.28685 1.02441 -4.49053 
3588 2 -2.81028 0.973955 -3.36446 
3120 2 -2.75903 1.88162 -3.472 
1367 1 -2.30466 1.93658 -4.35886 
1543 1 -1.42091 1.14826 -3.14245 
1266 1 0.311747 0.821055 -3.47175 
3555 2 -0.655604 0.974558 -3.96917 
2950 2 -0.522097 1.8362 -3.90741 
1562 1 0.339716 1.48357 -4.69126 
2529 1 -0.051025 1.31142 -2.81197 
3443 2 1.61515 1.66924 -4.4751 
857 1 1.21817 0.969075 -3.61021 
1432 1 1.31734 0.121329 -3.71061 
295 1 0.590283 1.7233 -3.91092 
414 1 2.53715 1.00178 -3.72158 
785 1 2.17432 1.9225 -3.4999 
2407 1 2.84113 1.44092 -4.67546 
925 1 4.65376 2.51939 -4.17166 
3209 2 5.4532 1.01202 -3.75113 
3369 2 5.38694 1.82921 -3.56492 
1282 1 6.53322 1.5287 -3.8681 
2578 1 -5.63319 1.54426 -3.55687 
3033 2 -6.81965 2.32688 -4.15564 
1514 1 -5.68081 2.45048 -3.86701 
2653 1 -6.21781 2.61548 -3.17613 
1793 1 -4.81228 1.97576 -3.76081 
286 1 -3.89628 2.68206 -3.87983 
1512 1 -3.12475 2.48945 -4.40678 
1198 1 -1.76268 2.59474 -4.15834 
2077 1 -3.47216 2.26097 -5.11325 
1484 1 -1.59435 2.08098 -3.3622 
3196 2 -0.723173 2.61133 -3.77003 
2860 2 -0.784612 3.24475 -3.42924 
823 1 -0.43191 2.35574 -4.78501 
1993 1 0.413458 2.57211 -3.96971 
14 1 0.287292 3.47458 -3.66457 
3241 2 1.39667 2.37205 -4.39045 
3063 2 1.44164 3.17051 -4.33975 
892 1 1.16678 1.98784 -3.39343 
1923 1 2.40061 4.207 -5.29557 