ITEM: TIMESTEP
46800
ITEM: NUMBER OF ATOMS
3594
ITEM: BOX BOUNDS pp pp pp
-7.1979854169590647e+00 7.1979854169590647e+00
-7.1979854169590647e+00 7.1979854169590647e+00
-7.1979854169590647e+00 7.1979854169590647e+00
ITEM: ATOMS id type x y z 
1399 1 -6.50448 -5.90578 -6.34032 
239 1 -6.36467 -6.84472 -6.22772 
1410 1 7.09912 -6.75908 -6.66795 
3477 2 -5.07447 -6.71938 -6.14753 
1906 1 -5.6073 -6.9796 -7.06856 
2018 1 -4.58178 -6.50158 -7.13576 
2248 1 -4.22489 -6.15468 -6.46171 
2944 2 -2.95004 -6.65442 -6.62861 
3574 2 -2.76214 -5.94466 -6.5064 
1893 1 -1.48676 7.17478 -6.20353 
897 1 -1.28782 -5.66141 -5.99783 
2626 1 -0.0800264 -5.99852 -6.01845 
2083 1 -0.875489 -6.55258 -6.21782 
1308 1 -2.04166 -6.52134 -5.74267 
533 1 0.436343 -5.91365 -6.72965 
3019 2 -0.770881 -5.93964 -7.10857 
1643 1 0.0886803 6.4645 -6.188 
1385 1 0.249826 -6.82019 -6.5235 
2246 1 1.30779 -6.31273 -6.70612 
2024 1 0.734641 -6.83896 7.03964 
774 1 1.98766 -5.6659 -6.43103 
1425 1 2.02967 -6.59484 -6.08874 
1234 1 1.95374 -5.908 -5.46228 
313 1 2.52934 -5.9332 -7.03389 
3442 2 2.99484 -5.82635 -6.01877 
3587 2 3.22889 -6.52406 -6.34255 
932 1 4.32001 -5.82893 -6.11455 
1970 1 4.28009 -6.60537 -6.77083 
3208 2 5.48593 -6.61858 -6.96404 
2787 2 5.70995 7.02369 -7.09852 
13 1 6.32043 -6.49819 -6.23557 
2200 1 6.57264 -6.42504 7.01059 
1345 1 -7.18616 -5.44299 -6.14761 
335 1 -5.79095 -6.2213 -6.67386 
572 1 -6.13272 -4.97713 -6.29402 
2727 1 7.17343 -4.47904 -6.16845 
2546 1 -5.01637 -5.91493 -6.95538 
1473 1 -5.59439 -5.22577 -7.03361 
2702 1 -4.27174 -5.13016 -6.02876 
1181 1 -3.7545 -5.57652 -7.11739 
959 1 -3.95374 -4.59618 -5.21594 
2301 1 -4.08447 -4.66386 -7.17672 
3061 2 -3.39764 -4.41302 -6.36711 
2981 2 -3.03513 -5.13885 -6.40334 
2630 1 -1.78736 -6.32 -6.56547 
1822 1 -2.11292 -4.31436 -6.60087 
3484 2 -0.64 -5.22761 -7.05216 
2808 2 -0.703115 -4.568 -6.76944 
1122 1 0.326633 -4.98982 -6.16395 
607 1 -0.00707575 -4.05069 -6.03622 
1347 1 0.332654 -4.47389 7.09233 
1587 1 1.25778 -5.40223 -6.34468 
1442 1 1.92601 -4.88685 -5.78513 
2628 1 2.00631 -4.6939 -6.65773 
2537 1 3.40395 -5.25719 -7.18928 
1836 1 2.61241 -5.13055 -7.14472 
2957 2 2.89321 -5.11989 -5.86029 
589 1 3.94022 -5.749 -6.79642 
26 1 3.07484 -4.40498 -7.13464 
893 1 4.09756 -4.99757 -6.315 
2812 2 5.39419 -5.90361 -6.79276 
3212 2 5.24247 -5.18491 -6.70757 
639 1 6.53323 -5.82303 -6.54721 
1273 1 6.37463 -4.90634 -6.18359 
1918 1 6.34004 -4.84635 -6.94877 
153 1 5.76825 -4.78398 -5.73254 
2975 2 -7.16448 -3.82627 7.16477 
1654 1 -6.11179 -3.9771 -6.40185 
3126 2 -7.1935 -3.24928 -6.80421 
1020 1 -4.52803 -5.23496 -6.81703 
937 1 -4.97711 -4.32685 -6.71262 
3041 2 -3.19328 -3.75246 -5.99997 
139 1 -4.09797 -3.87448 -6.95752 
890 1 -1.81609 -3.68483 -6.18214 
2397 1 -2.9096 -4.58742 7.00848 
2057 1 -2.70917 -3.80917 -6.99596 
3332 2 -0.883396 -3.82561 -6.8277 
250 1 -0.0545199 -3.56811 7.10293 
541 1 0.324439 -3.22541 -6.10261 
1313 1 0.963606 -4.41054 -6.35851 
1644 1 1.28297 -3.39304 -6.10094 
779 1 2.48932 -3.98519 -6.92051 
2709 1 2.37009 -4.09049 6.75978 
2431 1 3.96365 -3.82699 -6.58982 
1527 1 3.70707 -3.08545 -6.16084 
3266 2 5.03667 -4.35229 -6.49976 
1697 1 6.09455 -4.0808 -6.6927 
2126 1 6.71431 -2.56767 -5.47625 
2015 1 -6.75651 -3.68683 -5.82555 
148 1 -6.7038 -2.68148 -5.69453 
2360 1 -6.06537 -2.29252 -6.14386 
519 1 -6.27283 -2.60467 -6.9957 
90 1 -5.19853 -2.53303 -6.34892 
1640 1 -5.26238 -3.36579 -6.60861 
911 1 -3.07405 -2.57301 -6.95791 
2869 2 -3.2988 -3.01841 -5.93447 
2381 1 -4.05612 -2.60208 -6.78439 
18 1 -4.50359 -2.06892 -6.09822 
743 1 -2.4488 -2.01249 -5.95901 
323 1 -2.37512 -1.37561 -6.65957 
1629 1 -2.30442 -2.99649 -6.67484 
667 1 -1.64467 -2.44777 -5.19312 
3234 2 -0.974058 -3.01214 -6.48215 
3105 2 -1.36477 -2.36683 -6.16631 
1489 1 -0.053911 -2.73986 -6.91472 
154 1 0.389084 -2.38018 -5.95825 
2511 1 -0.420103 -2.60206 -5.56435 
2804 2 0.992243 -2.15212 -7.05959 
1859 1 0.449543 -3.71788 -6.64297 
2050 1 1.746 -2.53716 -6.42715 
3347 2 0.97958 -2.8763 7.10048 
190 1 3.06691 -2.5855 -6.65678 
1897 1 2.46244 -3.05987 -7.10432 
1648 1 3.23427 -3.59006 -6.92235 
675 1 4.17296 -2.46837 -6.9098 
2767 2 5.04295 -3.49727 -6.34762 
3550 2 4.917 -2.80653 -6.00248 
42 1 6.98887 -1.52299 6.76209 
2101 1 5.6625 -2.7762 -5.26076 
3087 2 7.06635 -2.46469 -6.53599 
1029 1 6.12755 -3.25167 -6.71827 
936 1 -5.55694 -1.60659 -5.95601 
923 1 -6.34006 -1.55871 -6.58369 
2560 1 -5.72215 -0.702492 -5.69397 
571 1 -4.24546 -1.41912 -6.48947 
2892 2 -5.48517 -1.39648 -6.97828 
1928 1 -3.1471 -1.76859 -6.62357 
2601 1 -3.58893 -0.868685 -6.34255 
2699 1 -2.82167 -1.03097 -5.83597 
2390 1 -1.4444 -0.220343 -7.00956 
2796 2 -1.58547 -0.745727 -5.97435 
1485 1 -0.43824 -1.03646 -6.17623 
460 1 -0.202435 -1.74229 -5.72937 
3088 2 0.630644 -0.834171 -6.54987 
1374 1 -0.442105 -1.94108 -6.58437 
3151 2 0.631697 -1.51914 -6.80654 
1695 1 1.73644 -1.67767 -6.24971 
76 1 3.23059 -0.65203 -5.61778 
1418 1 1.9617 -1.40553 -7.00514 
309 1 2.65127 -1.77632 -6.62739 
40 1 3.43384 -1.56025 -6.06693 
1981 1 4.14711 -1.57336 -6.73869 
453 1 5.04927 -1.97886 -6.98476 
296 1 3.69428 -1.44685 -5.09711 
1876 1 3.62817 -0.741315 -6.5252 
2072 1 5.85144 -1.49693 -6.70393 
2122 1 5.71863 -0.599401 -6.9306 
2840 2 6.953 -1.73966 -6.43346 
2797 2 7.01306 -1.02222 -6.35277 
2510 1 6.18701 -1.28337 6.94426 
2617 1 -6.48356 -0.393537 -6.10115 
1698 1 -6.86836 0.327448 -6.44068 
37 1 -6.68625 -0.738801 -7.09769 
3097 2 -5.61841 0.261761 -6.54051 
3360 2 -5.39154 -0.4861 -6.7358 
2318 1 -4.86372 0.772109 -5.91335 
408 1 -4.10324 0.794222 -6.08726 
415 1 -4.47948 0.407939 -6.74414 
1772 1 -2.89538 0.504418 -5.2452 
2326 1 -3.22938 -0.0466583 -6.07182 
2013 1 -2.52916 -0.466982 -6.48682 
2081 1 -2.68744 0.462105 -6.51577 
502 1 -0.613762 -0.104324 -6.45343 
2042 1 -1.77161 1.69777 -6.6144 
343 1 -1.58108 0.561944 -6.84008 
3311 2 0.56174 0.111461 -6.4804 
2928 2 0.398381 0.864495 -6.25866 
1619 1 -0.212424 -0.214038 7.08709 
1843 1 2.69781 -0.999591 -6.20963 
1708 1 1.70687 -0.617593 -6.3644 
2080 1 1.35677 0.316141 -5.80122 
308 1 2.29445 -0.0631066 -5.96469 
2960 2 2.51048 0.605128 -7.18166 
3195 2 2.77943 -0.0200343 -6.95434 
303 1 4.84789 -0.975475 -6.85462 
2730 1 3.79247 0.330754 -6.80636 
1218 1 3.70291 0.188705 6.7376 
970 1 5.99649 -0.0149744 6.91469 
2418 1 4.58192 -0.114009 -6.67908 
3135 2 6.69706 -0.359262 -6.25886 
3038 2 6.22987 0.335126 -6.0905 
2353 1 6.80674 0.203009 -7.19348 
817 1 7.1794 1.03823 -6.26873 
2724 1 7.12546 2.92464 -6.85203 
3127 2 -6.07768 0.96094 -6.56557 
1232 1 -3.9226 1.97754 -5.97369 
305 1 -4.6475 1.69675 -6.34876 
433 1 -3.38191 1.9878 -5.22214 
1525 1 -2.33725 1.10745 -6.8593 
2108 1 -3.37274 1.18681 -5.66773 
1265 1 -2.61434 2.10647 -6.8831 
3329 2 -3.56566 0.629582 -7.19382 
287 1 -0.776666 1.57559 -7.08421 
1057 1 -1.10924 1.69388 -5.60384 
1971 1 -1.00511 1.06843 -6.29792 
3078 2 -0.0798338 1.76098 -6.13172 
1661 1 -0.641733 0.651452 -7.02741 
2712 1 1.50553 0.740797 -6.66032 
867 1 2.32222 0.839658 -5.9536 
3459 2 2.41877 1.44302 -6.95909 
3393 2 2.22615 2.1522 -6.70756 
1368 1 2.80745 1.17208 -5.38433 
32 1 3.55682 1.75461 -6.77246 
2062 1 3.50955 1.10478 7.01564 
312 1 5.34469 0.155845 -6.88596 
199 1 4.82454 0.814139 -6.47658 
805 1 3.21614 1.07041 -6.23052 
795 1 4.02012 1.04387 -6.37996 
3060 2 6.28134 1.17879 -5.86519 
1987 1 6.81951 0.973838 -7.0557 
2386 1 6.25152 1.80113 -6.89087 
3007 2 -6.1277 1.75074 -6.52132 
3140 2 -6.12369 2.62131 -6.37797 
565 1 -4.61991 2.56566 -6.06619 
1336 1 -5.29112 2.44926 -5.55752 
2275 1 -3.02511 1.53085 -6.45631 
3093 2 -3.82239 2.25557 -7.1061 
2466 1 -3.93511 3.04441 -5.7906 
2783 2 -4.15535 2.96858 -6.97402 
2694 1 -2.00113 2.83059 -6.39098 
1053 1 -1.23227 2.3146 -6.45132 
1933 1 -0.678304 2.64218 -7.18548 
3444 2 -0.00563484 2.60406 -6.20836 
2813 2 -0.207851 3.35664 -6.01247 
1932 1 0.688614 3.7191 -6.61973 
1848 1 1.02083 2.62255 -6.37523 
497 1 1.38616 1.57254 -6.39732 
171 1 3.65414 2.44173 -6.1879 
3417 2 2.17313 2.95442 -6.61927 
2261 1 2.95485 2.9955 -5.93111 
941 1 3.00215 1.84554 -5.97253 
591 1 4.32174 1.84993 -6.29595 
1677 1 4.32952 2.82685 -5.88255 
478 1 5.29413 1.56912 -6.77669 
1414 1 5.17385 2.4079 -6.64478 
2061 1 6.29678 2.78358 -6.90723 
3414 2 6.04171 1.92456 -5.83817 
115 1 5.54208 2.31627 6.9546 
3465 2 -6.51465 3.43323 -6.27105 
2736 2 -6.48568 4.21412 -5.98909 
964 1 -5.27339 4.16205 -6.32464 
507 1 -3.22302 3.69445 7.09353 
3408 2 -4.23544 3.78851 -6.81686 
3411 2 -4.41058 4.65426 -6.6673 
341 1 -2.35364 4.04459 -6.2939 
1098 1 -1.65204 3.66193 -5.95809 
1370 1 -2.16362 4.82385 -6.17061 
673 1 -1.02211 3.47719 -6.67919 
2401 1 -1.64452 4.27231 -5.39861 
2524 1 -1.27246 4.38371 -6.38417 
2285 1 -0.75065 4.1286 7.03527 
1639 1 0.434871 4.88884 -6.11455 
1249 1 0.69917 4.13396 -5.93187 
3378 2 -0.360082 4.18641 -5.78072 
1924 1 1.05144 3.30467 -5.42454 
3466 2 1.77557 4.55675 -6.47262 
3478 2 1.80216 3.70598 -6.50272 
1978 1 3.19485 3.43464 -7.06823 
693 1 2.84843 4.76312 -6.65149 
3551 2 4.08885 4.23932 -7.02621 
2530 1 3.63085 3.33695 -6.26622 
3223 2 4.07745 5.0062 -7.03673 
1068 1 3.25276 4.15079 -6.37556 
2597 1 6.06845 3.51908 -6.75253 
2142 1 4.84128 3.36298 -6.44113 
1616 1 6.00286 4.45623 -6.39052 
1867 1 -7.08576 3.82917 -7.03986 
2327 1 6.85996 4.42564 -6.67312 
1727 1 -6.35726 5.25481 -6.98229 
2594 1 -6.17411 4.40892 -7.07497 
1845 1 -5.42331 4.91403 7.02743 
896 1 -5.51025 5.67016 -7.08055 
754 1 -5.68147 4.9526 -6.31213 
1481 1 -3.47206 5.62846 -6.80764 
3471 2 -4.48205 5.34231 -6.51116 
1004 1 -3.42915 4.91508 7.06162 
1344 1 -2.99225 5.13224 -6.26136 
2832 2 -2.41689 5.54941 7.16839 
225 1 -1.38719 5.14853 -6.73521 
1663 1 -0.65373 4.85389 -6.89453 
1767 1 -0.149412 5.44092 -6.69749 
1356 1 0.269205 5.68769 -5.82477 
215 1 -0.615906 6.06492 -6.77348 
2675 1 -0.000377252 4.28497 -6.76304 
3138 2 1.54638 5.14073 -6.1084 
2831 2 1.3845 6.00962 -6.05541 
282 1 0.683904 5.17373 -6.94888 
255 1 2.54503 5.47907 -6.85449 
2627 1 2.08251 6.2808 -6.89223 
3215 2 3.63507 5.51156 -6.7126 
2711 1 4.2542 3.94097 -5.84592 
1965 1 4.73798 4.56183 -6.27823 
2701 1 7.06792 5.24853 -6.90516 
1341 1 6.32457 5.2864 -6.49553 
862 1 -7.11454 6.1309 7.0541 
1117 1 -6.96824 6.87746 -6.59092 
942 1 -5.95526 6.6127 -5.87101 
3150 2 -4.82493 6.99443 -6.24856 
317 1 -6.42475 6.09695 -6.76236 
3463 2 -4.70876 6.21304 -6.36259 
2446 1 -3.79552 7.16882 -6.75682 
601 1 -3.54602 6.37134 -6.44322 
197 1 -2.8727 6.84128 -5.87508 
1775 1 -3.65105 6.51604 7.03997 
2342 1 -3.72385 5.68444 -5.71937 
3454 2 -2.48085 6.39754 -7.03208 
3268 2 -2.6472 7.10561 -6.99246 
1506 1 -1.34831 6.55992 -7.10164 
1747 1 -1.3187 5.83564 -6.55097 
1984 1 -1.92239 6.41566 -6.12361 
1093 1 -0.478944 7.04325 -6.45178 
1850 1 0.607479 5.98894 -6.856 
2492 1 1.42926 6.98099 -6.94408 
2899 2 1.27295 6.7562 -5.92633 
849 1 2.43166 6.97686 -6.16348 
748 1 2.04162 -6.68716 -6.8286 
2790 2 3.57754 6.30724 -6.61779 
3569 2 3.3948 -7.18936 -6.48712 
2568 1 4.81632 5.82064 -7.10176 
1681 1 4.70673 6.56893 -6.62055 
459 1 4.98174 5.50073 -6.26808 
3539 2 5.7944 6.31069 7.02994 
829 1 6.84957 6.08321 -6.62446 
2003 1 6.79239 6.39826 6.40367 
760 1 6.48665 6.9032 -6.21956 
1263 1 -6.24845 -6.19113 -5.59305 
2747 2 -7.14333 -6.56722 -5.55204 
3520 2 -5.21245 -5.99737 -5.75134 
2321 1 -4.77529 6.91045 -5.18048 
2462 1 -4.52065 -6.4134 -3.54089 
392 1 -4.02503 -6.88301 -6.02917 
1149 1 -4.22605 -6.57546 -5.1175 
2002 1 -3.13252 -6.58331 -5.52761 
1435 1 -2.18828 7.05645 -5.62049 
2439 1 -2.56353 -5.91797 -5.35355 
3322 2 -1.37 -6.08632 -5.09087 
245 1 -0.171121 -6.89378 -5.53817 
427 1 0.93468 6.90298 -4.86499 
3128 2 0.862765 -6.05448 -5.48826 
248 1 2.5942 -7.06336 -5.44755 
1837 1 1.79885 7.19373 -5.04035 
1896 1 4.10215 -6.54517 -5.57435 
452 1 5.38118 6.67647 -6.00221 
3290 2 5.03925 7.11372 -4.75265 
98 1 5.10068 -5.5894 -5.53772 
522 1 5.23921 -6.36088 -5.71763 
916 1 6.00183 -5.77676 -5.84312 
2825 2 4.70183 -6.49142 -4.65737 
3487 2 6.88296 -6.00681 -5.15693 
1985 1 6.04416 -6.57173 -4.97962 
2615 1 6.66178 -6.86422 -4.40326 
2137 1 -6.4351 -5.23987 -5.47196 
1291 1 -5.24149 -6.43048 -4.78032 
695 1 -6.12068 -6.03769 -4.81544 
3416 2 -5.29493 -5.19743 -5.83838 
3325 2 -5.29223 -4.35172 -5.72223 
472 1 -3.82417 -5.95006 -5.73644 
642 1 -4.6876 -4.75241 -4.7801 
88 1 -3.36212 -3.9561 -4.9182 
2674 1 -4.35259 -5.55876 -5.02396 
2549 1 -2.19582 -5.27085 -5.5746 
833 1 -3.20926 -5.13377 -5.28075 
913 1 -2.86055 -4.55353 -4.89529 
3480 2 -1.40856 -5.19448 -4.82807 
3285 2 -1.46214 -4.39137 -4.59442 
786 1 -0.455793 -5.46498 -5.62047 
1050 1 -0.230392 -6.22091 -4.87611 
2826 2 0.85825 -5.21756 -5.30814 
3068 2 0.805715 -4.46368 -5.19968 
2491 1 1.97472 -6.35836 -4.75853 
2623 1 1.74221 -5.50473 -4.62519 
1416 1 2.78636 -6.27838 -5.05486 
1575 1 2.69032 -5.22175 -4.776 
1160 1 3.57266 -4.80285 -5.0634 
1019 1 3.93617 -5.57434 -5.23064 
1211 1 3.45902 -6.1883 -4.76288 
1322 1 4.76319 -4.95726 -5.69576 
2659 1 5.84519 -5.73045 -4.36322 
1364 1 5.26025 -4.33357 -5.33362 
451 1 5.79846 -5.36457 -4.98483 
2828 2 6.89067 -5.3073 -5.16396 
2721 1 -6.66976 -4.45935 -5.39672 
1483 1 -6.0767 -3.15171 -6.32605 
1835 1 -4.40484 -3.35566 -6.4238 
2912 2 -5.62773 -3.73709 -5.46094 
1361 1 -4.65302 -3.73701 -4.68091 
2516 1 -4.35787 -4.2542 -6.01848 
1140 1 -4.11923 -3.66486 -5.29084 
523 1 -2.89565 -3.12018 -4.78905 
484 1 -2.36328 -3.53424 -5.19624 
2262 1 -2.30763 -4.43103 -5.53942 
842 1 -1.46232 -4.82359 -5.99983 
922 1 -1.3036 -4.02617 -5.5677 
2058 1 -0.511844 -3.96189 -4.87116 
2052 1 -0.440393 -4.70384 -5.60446 
2631 1 -0.586943 -3.43698 -5.59737 
3227 2 0.589878 -2.88192 -4.87435 
2768 2 0.554811 -3.71727 -4.99748 
2520 1 1.70391 -4.26085 -6.12866 
840 1 1.84492 -3.71949 -4.52441 
984 1 2.14535 -4.46056 -5.05743 
2933 2 2.98758 -4.27036 -6.07776 
3249 2 2.66273 -3.6186 -5.6972 
1945 1 3.45053 -3.95551 -4.90149 
850 1 2.68381 -4.1949 -4.50602 
1611 1 1.42621 -4.65226 -4.30064 
2539 1 3.9842 -4.34742 -5.77531 
1372 1 4.46982 -4.02383 -5.11968 
1597 1 6.62649 -4.00351 -6.02755 
346 1 5.83328 -3.81524 -5.52037 
3010 2 6.7542 -4.50215 -5.00807 
3080 2 6.55104 -3.82557 -4.65384 
41 1 -6.50759 -1.5136 -5.77629 
92 1 -6.76076 -3.13917 -4.94119 
2612 1 -6.52989 -3.96292 -4.57589 
2890 2 -5.76195 -2.20413 -5.06127 
2737 2 -5.58682 -2.92317 -5.29402 
2661 1 -4.69279 -2.31179 -4.95797 
874 1 -4.75767 -1.718 -5.3933 
1445 1 -4.52217 -2.93699 -5.68615 
2844 2 -3.42071 -2.36717 -5.77004 
1087 1 -3.94011 -2.88143 -4.76069 
520 1 -2.17112 -2.92508 -5.82537 
1112 1 -1.61694 -3.22229 -5.43134 
858 1 -0.977676 -2.34766 -4.52377 
527 1 -0.867804 -3.04081 -4.89545 
3430 2 0.176453 -2.31213 -4.63104 
3354 2 0.0380109 -1.62136 -4.51113 
2139 1 -0.838552 -1.88952 -5.16684 
566 1 1.7061 -3.75542 -5.45945 
2600 1 1.11557 -2.68486 -5.81983 
400 1 1.58327 -2.98299 -5.12299 
3014 2 2.54913 -2.87556 -5.74825 
2830 2 2.41436 -2.17527 -5.40296 
1215 1 3.39981 -3.11321 -4.84144 
847 1 4.06655 -3.39139 -5.48495 
873 1 3.46825 -2.32592 -5.18792 
2645 1 3.73284 -2.35211 -5.94907 
1841 1 4.47322 -2.77643 -4.86457 
2306 1 5.09001 -3.33212 -5.04279 
1373 1 6.44636 -3.22612 -5.73439 
499 1 5.14708 -2.06033 -4.73046 
1326 1 6.72301 -1.65079 -5.38639 
802 1 -7.0528 -1.31721 -5.07141 
3173 2 6.59163 -3.06322 -4.61219 
2974 2 -6.09453 -1.54213 -4.75822 
1883 1 -6.9587 -0.464635 -5.48242 
1548 1 6.91665 -0.647909 -4.96718 
2993 2 -6.01797 -0.766786 -4.77666 
1781 1 -5.09532 -0.20955 -5.4896 
477 1 -4.9396 -1.05056 -5.01075 
2320 1 -4.8354 -0.933693 -5.92327 
3543 2 -3.58618 -1.5633 -5.39925 
3256 2 -3.92652 -0.885871 -5.16337 
2605 1 -4.11647 -1.98266 -4.45187 
1064 1 -2.32679 -1.37469 -5.19772 
965 1 -2.52308 -2.27307 -5.09457 
159 1 -2.93379 -1.3321 -4.54966 
3200 2 -1.41044 -1.54595 -6.05043 
2465 1 -1.5127 -1.4779 -4.87664 
174 1 -2.21728 -0.612985 -4.72331 
2609 1 -0.577154 -1.11724 -5.24175 
2187 1 1.17601 -1.95486 -5.39137 
1562 1 0.385228 -1.18828 -5.51381 
2298 1 1.43947 -1.87284 -4.639 
2673 1 1.29735 -1.13232 -5.69486 
3356 2 2.31778 -1.34513 -5.26865 
3557 2 2.20929 -0.642599 -5.02953 
2995 2 4.63645 -1.25617 -5.82191 
85 1 4.44464 -1.27663 -4.45032 
1911 1 4.34263 -1.9068 -4.96959 
388 1 3.32134 -0.631111 -4.7512 
2972 2 4.76599 -2.08727 -5.96352 
2021 1 5.87011 -1.87903 -5.66027 
304 1 5.39665 -1.29975 -4.99321 
2311 1 6.04227 -1.07429 -5.45179 
2037 1 -6.81837 0.601884 -5.43043 
1224 1 -6.05275 0.228792 -5.59417 
1472 1 6.88939 1.18169 -4.98926 
3267 2 -6.38034 -0.108941 -4.60791 
1001 1 -4.23334 -0.273095 -6.28207 
1953 1 -5.01727 -0.291197 -4.49897 
3144 2 -4.00495 -0.0517589 -5.16245 
2861 2 -4.17007 0.82041 -5.05616 
1635 1 -2.81232 -0.36196 -5.22618 
1623 1 -2.91791 0.0821033 -4.63814 
1777 1 -1.96834 0.283382 -4.70974 
2939 2 -1.82122 -0.0392481 -5.85569 
2589 1 -0.310343 -0.346332 -5.59089 
605 1 -1.29524 -0.644102 -4.94584 
2647 1 0.103761 0.463541 -5.21589 
3383 2 1.77478 0.766747 -4.68899 
295 1 0.825134 -0.32617 -5.44405 
3449 2 1.8632 0.101913 -4.90361 
110 1 3.27811 0.234429 -5.82995 
2135 1 3.7628 0.271916 -4.53458 
3317 2 4.33546 -0.503621 -5.62597 
2848 2 4.20063 0.390052 -5.43603 
2407 1 2.78561 -0.324198 -4.12078 
1362 1 5.21534 0.240921 -5.95333 
2074 1 5.38952 0.787338 -5.23044 
2231 1 5.66585 -0.865172 -6.20676 
82 1 4.81316 1.24894 -4.56796 
504 1 5.06135 0.124794 -4.78498 
1369 1 6.95704 0.239724 -4.90938 
556 1 6.17236 -0.27528 -5.09434 
1927 1 6.76812 0.380247 -4.17894 
1607 1 -6.20778 1.94673 -5.21733 
668 1 -6.95903 1.52921 -5.59004 
1353 1 -5.40969 0.449379 -5.05815 
1446 1 -5.90715 1.17429 -5.42554 
3062 2 -4.52212 1.56653 -4.77112 
2241 1 -2.94548 1.3109 -4.61207 
330 1 -2.33601 0.94849 -4.53014 
3117 2 -2.13206 1.40082 -5.72668 
2846 2 -1.90653 0.731699 -5.75083 
994 1 -0.669212 0.476255 -5.742 
1517 1 -1.42512 0.998178 -4.87766 
603 1 -0.982074 0.147797 -4.97312 
14 1 -0.685995 1.14623 -5.09392 
1993 1 -0.376159 2.07776 -4.926 
324 1 1.0125 1.91201 -5.38656 
3443 2 1.72289 1.48878 -4.48942 
3241 2 1.56631 2.18763 -4.45757 
1998 1 1.25723 1.17909 -5.74204 
2150 1 3.00794 0.188167 -5.06116 
371 1 1.99139 1.66198 -5.63974 
1788 1 3.18444 1.06262 -4.71953 
3364 2 4.13252 1.15075 -5.35697 
3388 2 3.80999 1.86461 -5.27073 
1574 1 5.28287 1.8729 -4.84338 
2087 1 5.03794 1.31102 -5.925 
1343 1 6.74739 0.972789 -3.29496 
1207 1 6.96503 2.08849 -5.16906 
2276 1 6.018 0.873917 -4.77409 
1185 1 7.11355 2.4139 -6.12093 
1238 1 -6.68336 2.67462 -5.38048 
83 1 7.11078 3.32037 -5.51116 
50 1 -5.24346 1.66083 -5.8373 
2845 2 -4.58674 2.58747 -4.84109 
3456 2 -4.73965 3.29453 -4.55426 
686 1 -3.17124 2.63007 -6.15476 
28 1 -2.95975 2.05112 -4.29241 
2945 2 -2.3995 2.1261 -5.56383 
2977 2 -2.44555 2.92008 -5.18749 
757 1 -1.17304 2.58327 -5.70912 
823 1 -1.34582 2.13617 -4.89547 
177 1 -1.60169 2.87507 -4.58963 
84 1 0.426601 2.57535 -5.13084 
46 1 -0.629683 2.89803 -5.01656 
772 1 0.363119 2.4346 -4.10233 
1763 1 0.542833 1.70683 -4.58848 
1056 1 1.49671 2.63833 -5.70466 
2542 1 2.4045 2.47998 -5.51455 
441 1 2.6299 1.83209 -4.79755 
1817 1 2.41355 3.0119 -4.7387 
3433 2 3.56364 2.474 -4.80685 
194 1 6.17653 1.6754 -4.73166 
3298 2 5.88168 2.69732 -5.83058 
23 1 4.92184 2.12204 -5.75376 
2147 1 4.8522 2.65209 -5.06541 
723 1 6.4785 2.88954 -4.82891 
34 1 6.75217 3.58721 -6.26806 
1910 1 -5.73232 4.20917 -5.1525 
2297 1 -6.50774 3.58132 -4.85296 
59 1 -5.05311 4.51168 -5.6104 
2576 1 -5.50251 3.31528 -5.80161 
131 1 -6.19138 4.96286 -5.16903 
2885 2 -4.96212 4.10937 -4.50641 
2077 1 -4.71558 3.59559 -5.8374 
1512 1 -3.42157 3.75096 -6.01682 
912 1 -4.24192 4.09901 -5.35224 
1991 1 -3.68779 3.60875 -4.95319 
2865 2 -2.6241 3.79587 -5.19746 
175 1 -1.22825 3.42145 -5.26074 
448 1 -1.65462 3.8925 -4.58353 
3392 2 -0.564381 4.83966 -5.48599 
1505 1 0.162287 3.30304 -4.72849 
2208 1 -0.549318 3.83256 -4.69668 
1521 1 1.21902 4.22375 -5.28088 
301 1 1.89342 3.42576 -5.4042 
2379 1 2.63099 3.98758 -5.76275 
899 1 1.96551 4.11042 -4.93408 
2814 2 3.24826 3.94476 -4.89161 
2894 2 3.52846 3.1867 -5.0408 
16 1 3.86105 4.5787 -5.8434 
709 1 4.50139 3.47001 -5.08262 
2927 2 5.55451 4.12165 -5.50438 
2917 2 5.5831 3.39887 -5.69001 
2092 1 4.36496 4.35539 -5.08296 
2707 1 6.74043 4.13411 -5.68968 
1331 1 6.34862 3.64315 -4.82948 
2414 1 -7.10317 4.16848 -5.02087 
3238 2 -6.75028 4.927 -6.05259 
3045 2 -6.84587 5.67883 -5.85636 
1899 1 -6.34481 4.43731 -4.47372 
2715 1 -6.14203 5.80916 -4.91719 
1229 1 -4.41948 5.28875 -5.2531 
1391 1 -3.70298 4.69778 -5.66718 
966 1 -3.23977 4.44494 -6.53601 
587 1 -4.59119 6.10696 -5.18666 
1733 1 -3.789 4.72734 -4.68689 
3458 2 -2.77605 4.58294 -5.14669 
2988 2 -2.83317 5.39752 -5.11171 
2635 1 -1.61958 5.69985 -4.81213 
2603 1 -1.9531 5.61344 -5.94467 
345 1 -1.76698 5.03871 -5.44652 
3018 2 -0.716851 6.27652 -5.59947 
1687 1 0.365306 4.1465 -4.85997 
3207 2 -0.7746 5.4453 -5.67823 
1689 1 0.178456 5.78603 -5.00736 
2669 1 0.610015 4.991 -5.17982 
2429 1 1.43198 5.06223 -5.0094 
703 1 3.11732 5.13075 -5.84915 
1878 1 2.2878 4.7564 -5.60522 
2048 1 2.53281 5.79501 -5.8995 
696 1 3.84429 5.92869 -5.53802 
1923 1 4.71363 5.0766 -4.67209 
1113 1 4.28618 5.16233 -5.46918 
221 1 5.22409 5.49053 -4.14536 
3257 2 5.47861 4.8792 -5.45072 
806 1 6.54768 5.16581 -5.54336 
213 1 6.80948 5.55759 -4.7331 
1200 1 -7.04183 4.96919 -4.88729 
3147 2 -6.91968 6.34673 -5.48098 
3330 2 -7.0971 7.01989 -5.51994 
1184 1 -6.21416 6.56727 -4.66769 
698 1 -4.44654 -6.98474 -4.37282 
2440 1 -5.75381 5.84934 -6.2749 
29 1 -5.48904 6.07651 -5.26951 
2473 1 -5.40347 5.34585 -5.56859 
2033 1 -3.79699 6.7146 -5.62844 
2835 2 -3.29862 6.86847 -4.78492 
1346 1 -2.78141 6.06558 -6.02499 
1881 1 -1.94062 6.34448 -5.15449 
3265 2 -2.95543 6.13407 -4.79071 
3594 2 -1.17654 -6.80942 -5.12201 
3455 2 -1.00259 6.88262 -5.34239 
1107 1 -0.2402 6.60953 -4.51821 
1799 1 0.229429 6.6725 -5.42547 
1882 1 3.13943 6.44192 -5.65212 
2978 2 1.03887 -6.82975 -5.73615 
811 1 2.14455 6.42808 -5.23942 
15 1 2.24387 5.53814 -5.05054 
1130 1 0.971685 6.056 -4.98404 
2469 1 3.49047 -7.19235 -5.21907 
1311 1 4.56619 6.1756 -5.72591 
2086 1 4.37766 5.949 -4.8023 
924 1 4.77263 -7.00369 -6.20802 
798 1 4.32748 6.99849 -5.69321 
1871 1 5.96869 5.99345 -6.36269 
2971 2 5.43022 5.66995 -5.3149 
2926 2 5.38741 6.31202 -4.92753 
1667 1 6.37324 6.17389 -5.74112 
929 1 -6.90948 5.9352 -4.52845 
610 1 5.96961 -6.95809 -5.76349 
2533 1 -5.80594 7.1914 -5.26821 
655 1 -6.51436 -6.84674 -4.70502 
1153 1 -7.08548 -5.99337 -3.46343 
3228 2 -5.78062 -6.56391 -3.79755 
3375 2 -5.92969 -5.81334 -3.68833 
3413 2 -3.40598 -6.75031 -4.51223 
3562 2 -3.37537 -5.99106 -4.3502 
1551 1 -5.05951 -6.744 -2.90769 
202 1 -3.6485 -6.45487 -3.51896 
1406 1 -2.2717 -6.05152 -4.45976 
1665 1 -2.40168 -6.60917 -3.7844 
1979 1 -2.23557 -7.0085 -4.63958 
127 1 -2.10996 6.65403 -4.32045 
1144 1 -1.43244 -6.14926 -3.83193 
1585 1 -0.414383 -6.10677 -4.0125 
2453 1 0.302419 -7.0289 -4.69963 
1089 1 -0.571086 -7.12925 -4.07694 
3236 2 0.518911 -6.29795 -3.31486 
486 1 1.61518 6.86761 -4.28398 
2238 1 1.65108 -6.66809 -3.98836 
2525 1 1.43883 -5.97064 -3.14929 
2918 2 2.63865 -6.54319 -3.89201 
3379 2 2.5662 -5.75755 -3.65091 
189 1 3.78642 -6.84956 -4.06195 
2305 1 3.57285 -6.68657 -3.32983 
538 1 4.8345 7.03284 -3.71931 
1000 1 4.80423 -6.43422 -3.57812 
1863 1 5.9055 7.08442 -4.13196 
2571 1 -7.01738 -6.70231 -3.99497 
72 1 5.80067 -6.47617 -4.06097 
316 1 -6.78756 -5.71286 -4.37838 
844 1 -7.08022 -5.1741 -2.9062 
2521 1 -6.88022 -4.74437 -4.4388 
2896 2 -6.12239 -5.07783 -3.59837 
683 1 -5.20483 -5.43704 -4.50188 
2323 1 -4.62298 -6.1026 -4.2245 
1542 1 -5.42772 -4.23036 -4.35675 
2388 1 -5.9905 -4.97547 -4.82732 
595 1 -4.86453 -5.13937 -3.76954 
3536 2 -3.62627 -5.29318 -4.15209 
2176 1 -2.44366 -5.21614 -4.56762 
228 1 -2.32193 -4.70217 -3.91269 
2038 1 -1.81619 -5.40916 -3.68696 
1086 1 -1.69122 -4.39292 -3.46442 
1931 1 -0.272166 -5.29799 -4.80469 
1127 1 -0.670058 -5.28183 -3.93721 
1422 1 0.616697 -5.98875 -4.36997 
1538 1 1.25716 -5.5736 -3.8379 
1289 1 1.10669 -6.66769 -4.641 
2105 1 1.30128 -4.88642 -3.15975 
3230 2 2.26055 -5.02103 -3.66181 
112 1 3.98597 -5.90631 -3.55248 
2145 1 3.65634 -5.54844 -4.27081 
3244 2 4.65837 -4.79069 -4.45664 
834 1 4.42254 -5.2255 -3.33909 
2722 1 3.60956 -4.73522 -3.45047 
3340 2 4.78751 -5.64553 -4.46222 
997 1 5.33421 -5.65934 -3.49184 
1741 1 5.07186 -4.84059 -3.05863 
1013 1 6.67315 -5.85023 -4.20588 
1994 1 5.59816 -4.54671 -4.65586 
1664 1 7.15676 -5.24751 -3.68616 
1354 1 -6.80476 -3.51568 -3.89394 
2375 1 -5.78152 -3.43558 -4.29135 
3286 2 -6.15907 -4.35693 -3.41078 
550 1 -5.2613 -3.25457 -3.62984 
1251 1 -4.8957 -4.20928 -3.68691 
1553 1 -4.98027 -3.93532 -2.80911 
3376 2 -3.8474 -4.5243 -4.08268 
3083 2 -3.84846 -3.71979 -3.88385 
386 1 -2.90354 -2.91189 -3.2214 
977 1 -2.70065 -4.01654 -4.15742 
2044 1 -1.75932 -2.96144 -3.11069 
3198 2 -1.75027 -3.47909 -4.38949 
1380 1 -1.03927 -3.57996 -3.56037 
1846 1 -0.739048 -4.41422 -3.74759 
1491 1 -0.130573 -4.44988 -4.39292 
1028 1 0.492253 -5.06523 -4.25702 
2540 1 0.086034 -3.72166 -3.85611 
247 1 0.780343 -4.33992 -3.78021 
1415 1 3.31019 -4.8759 -4.25728 
3320 2 2.08492 -3.46896 -3.29697 
3015 2 2.20127 -4.27809 -3.57978 
2857 2 4.33045 -4.06235 -4.09543 
169 1 3.24829 -4.01129 -3.07097 
1595 1 5.48093 -3.63368 -4.39981 
1428 1 5.55867 -4.87447 -3.67744 
2507 1 6.34477 -4.96297 -4.04964 
56 1 -5.43783 -2.47198 -3.97573 
1444 1 -6.52659 -2.71634 -4.23076 
2351 1 -6.56265 -2.0476 -3.82075 
1182 1 -4.79947 -2.93641 -4.39179 
1392 1 -5.39188 -2.39624 -3.17114 
1316 1 -5.86554 -1.5804 -3.71225 
1031 1 -4.7826 -1.96141 -2.26664 
3229 2 -3.96375 -3.01271 -3.52229 
3447 2 -4.25573 -2.29885 -3.47417 
1285 1 -2.94181 -3.07965 -3.92378 
2766 2 -2.19831 -1.99609 -3.98953 
2302 1 -3.29486 -2.27042 -4.43795 
1431 1 -3.51519 -3.02585 -2.55768 
2916 2 -2.00822 -2.64572 -4.26262 
358 1 -0.945629 -2.458 -3.53608 
2263 1 0.797152 -2.85975 -3.70041 
1195 1 -0.425267 -3.35068 -4.2285 
692 1 1.15009 -3.61648 -3.87851 
2901 2 1.86563 -2.65794 -3.18953 
1830 1 3.12024 -2.31786 -4.43088 
2558 1 2.47293 -3.17624 -4.53611 
27 1 3.22463 -3.82001 -3.96729 
1653 1 3.0911 -2.97899 -3.65193 
3353 2 4.14555 -3.14386 -4.02667 
3134 2 3.98171 -2.3598 -3.73131 
2211 1 5.31733 -2.94995 -4.15798 
2646 1 6.15834 -3.19168 -3.51102 
2858 2 6.26889 -2.48393 -4.4277 
1851 1 6.93199 -3.52518 -3.4887 
1672 1 -6.98637 -2.1815 -4.97204 
2132 1 -7.08977 -1.76125 -4.2835 
2642 1 7.0433 -0.563182 -4.2392 
318 1 -4.98397 -1.74329 -4.18125 
86 1 -5.5602 -1.58114 -2.92166 
1790 1 -3.08819 -1.95435 -3.35923 
1151 1 -4.25384 -1.10179 -4.19722 
2480 1 -3.52296 -1.39128 -3.87587 
2748 2 -2.27242 -1.2784 -3.7025 
2789 2 -2.43713 -0.46343 -3.5524 
1441 1 -1.097 -1.5835 -4.10351 
1266 1 -0.400792 -1.78395 -3.43489 
2228 1 -1.13861 -0.609971 -4.14425 
3585 2 -0.147575 -0.895592 -4.39198 
2400 1 -0.0911986 -2.56979 -3.56954 
111 1 0.599213 -1.37488 -2.41077 
749 1 1.52169 -2.68636 -4.23769 
1239 1 1.24477 -1.93714 -3.87137 
2411 1 1.02417 -1.13368 -4.79441 
876 1 1.30758 -0.478958 -3.97866 
167 1 1.92072 -1.38496 -4.22958 
656 1 2.30982 -2.38049 -4.31242 
1275 1 3.17598 -1.44342 -4.42108 
1085 1 2.87402 -1.24837 -3.20543 
2914 2 3.9603 -1.5961 -3.53897 
3483 2 3.7347 -0.776913 -3.52799 
130 1 4.92873 -0.585348 -4.57683 
960 1 5.1386 -1.97367 -3.90272 
1340 1 5.44686 -0.326675 -5.3977 
2657 1 6.8397 -1.65724 -3.52165 
1294 1 -7.18755 -2.78097 -3.57863 
3116 2 6.2771 -1.7181 -4.37613 
2856 2 6.06444 -0.828939 -4.12146 
2028 1 -6.72848 -0.207845 -3.58046 
3186 2 -6.35873 0.572972 -4.19699 
1568 1 -5.92509 -0.629895 -3.5908 
1791 1 -6.78249 -1.03688 -3.7586 
2436 1 -5.23452 -1.03867 -4.09274 
697 1 -5.55034 0.144046 -3.71831 
1671 1 -3.28412 -0.636508 -4.12053 
2363 1 -4.13004 -0.273108 -3.91432 
1809 1 -3.51662 0.0658135 -3.4232 
3490 2 -2.43834 0.292488 -3.42592 
1812 1 -0.638266 -0.55019 -3.38503 
2406 1 -0.653517 1.16107 -2.97606 
3500 2 -0.124396 -0.0807639 -4.27172 
3555 2 -0.336757 0.611363 -4.18324 
2020 1 0.786255 -1.13629 -3.77874 
904 1 0.785604 0.868828 -5.17224 
75 1 0.777197 -0.157389 -4.70899 
2460 1 2.26594 -0.736255 -3.62675 
2084 1 2.81845 0.627246 -4.08685 
1325 1 4.41065 1.23063 -3.34743 
665 1 4.09039 -0.413186 -4.62642 
3305 2 3.5584 -0.0455809 -3.39419 
2902 2 5.91457 -0.0384811 -3.92997 
2819 2 5.4712 0.500651 -3.89758 
410 1 4.75948 -0.340933 -3.87585 
49 1 6.62605 0.0210532 -3.07196 
3263 2 -6.56001 1.27369 -4.30244 
3260 2 -6.74819 2.14397 -4.21006 
1169 1 -5.69529 0.898332 -3.47626 
1725 1 -5.3504 0.70286 -4.27878 
561 1 -5.52123 1.42718 -4.66379 
2508 1 -3.4996 1.39463 -3.97977 
594 1 -3.48369 0.553424 -4.16507 
731 1 -4.51832 1.4876 -3.75497 
2448 1 -4.58898 0.556063 -3.94866 
1214 1 -3.89883 1.88778 -3.06679 
3588 2 -2.42659 1.007 -3.44447 
883 1 -1.48962 0.161534 -3.94909 
1894 1 -1.58012 1.24455 -3.99608 
1367 1 -1.72724 2.15521 -3.51188 
1432 1 0.548285 -0.186117 -3.27134 
2950 2 -0.537122 1.31356 -3.96637 
3196 2 -0.72109 2.01445 -3.95023 
2713 1 0.0989007 1.32467 -5.18029 
892 1 0.731583 0.887264 -4.20362 
414 1 1.07124 0.354376 -3.64846 
2650 1 1.55875 1.05811 -3.52701 
1524 1 2.64817 1.46776 -4.02665 
2575 1 2.27712 0.773179 -3.29074 
1176 1 1.92337 0.0186199 -3.83566 
423 1 4.14302 0.775056 -2.29818 
377 1 3.93045 1.16481 -4.15259 
891 1 4.12256 2.0842 -3.39411 
2380 1 4.50729 2.04248 -4.26793 
3209 2 5.73385 1.19272 -3.63181 
2584 1 6.64243 1.14002 -4.07585 
2010 1 7.03407 1.799 -3.29111 
3033 2 -6.86147 2.9574 -4.1264 
1060 1 -5.33513 1.53969 -3.84983 
443 1 -5.6697 2.38097 -4.64566 
2551 1 -4.83407 2.30298 -3.82562 
803 1 -3.44229 2.82993 -4.88028 
2395 1 -3.77612 2.35006 -4.11696 
1148 1 -4.70404 3.26334 -3.4919 
286 1 -2.04084 1.72797 -4.37561 
2490 1 -2.25306 2.66052 -4.16477 
1329 1 -1.65337 2.79771 -3.01809 
1638 1 -1.98019 3.48261 -2.52173 
2860 2 -0.838276 2.90099 -3.78291 
1486 1 0.0388248 3.43552 -3.77302 
1375 1 0.674816 1.61827 -3.71539 
47 1 1.02312 3.71241 -3.03196 
3063 2 1.27526 2.93102 -4.44334 
3479 2 1.09542 3.7993 -4.22091 
2313 1 1.1377 2.11694 -3.32552 
1466 1 2.09648 2.00133 -3.52511 
2592 1 2.76765 2.45358 -4.08497 