ITEM: TIMESTEP
17200
ITEM: NUMBER OF ATOMS
3594
ITEM: BOX BOUNDS pp pp pp
-7.2041315500318799e+00 7.2041315500318799e+00
-7.2041315500318799e+00 7.2041315500318799e+00
-7.2041315500318799e+00 7.2041315500318799e+00
ITEM: ATOMS id type x y z 
2051 1 -6.8678 -6.58344 -6.55529 
1437 1 -6.27472 -6.97408 -6.2983 
1610 1 -5.70199 -6.58252 -6.90752 
3520 2 -5.11354 -6.52261 -6.06649 
262 1 -5.04265 -6.90758 7.11266 
1654 1 -4.11957 -6.99431 -6.60864 
601 1 -4.67552 -6.05552 -7.06465 
2727 1 -4.01946 -6.17191 -6.32586 
2944 2 -2.79659 -6.47186 -6.61041 
1210 1 -1.5188 -6.40762 -6.61102 
448 1 -1.5339 -7.11916 -7.0669 
3368 2 -0.457007 -6.46772 -7.02413 
2018 1 -0.986244 -6.90644 -6.16679 
1088 1 0.707232 -6.3243 -6.5489 
1333 1 0.242877 -6.99094 -6.53333 
2415 1 0.938952 7.03901 -6.95866 
1073 1 1.47325 -6.72244 -6.67292 
686 1 2.13419 7.0681 -6.74279 
2623 1 2.32539 -6.31817 -6.83437 
2957 2 3.30254 -5.77438 -6.0212 
245 1 1.92971 -5.86113 -6.27815 
3442 2 3.41022 -6.46438 -6.19679 
645 1 4.40893 -6.1266 -6.57381 
3208 2 5.45666 -6.31775 -6.81742 
2787 2 5.72986 -7.14071 -7.03059 
1263 1 6.67973 -6.59205 -6.8641 
2045 1 6.97025 -5.7812 -6.51305 
1246 1 -6.67553 -5.69374 -6.15794 
1282 1 -6.23682 -4.80275 -6.29843 
3366 2 -6.80368 -5.2095 7.06637 
2122 1 -4.91386 -5.15229 -6.97449 
3325 2 -5.23984 -5.30414 -6.06621 
318 1 -6.06187 -5.75966 -6.74563 
977 1 -4.1781 -5.38293 -6.20951 
1184 1 -3.87497 -4.87914 -7.0253 
1087 1 -4.37113 -4.39369 -6.45808 
3574 2 -2.94903 -5.64745 -6.54211 
2981 2 -3.03491 -4.71248 -6.3809 
995 1 -1.94393 -4.24832 -6.53216 
2543 1 -1.93799 -5.72209 -6.28311 
3019 2 -0.771273 -5.75878 -7.17286 
3484 2 -0.812945 -4.98434 -6.99843 
722 1 -1.50577 -4.93887 -6.14756 
527 1 0.167951 -5.51611 -6.41129 
579 1 0.544631 -4.81863 -6.39399 
2368 1 0.604783 -5.85879 -7.13942 
1905 1 1.20046 -5.53238 -6.54756 
1425 1 1.67791 -4.81076 -6.1495 
2933 2 2.80625 -5.21444 -5.8743 
2379 1 2.34509 -5.34755 -6.92659 
1215 1 4.01064 -5.256 -6.4896 
1770 1 3.40909 -4.83064 -6.84511 
2590 1 2.95581 -5.77156 -7.08841 
638 1 3.98443 -5.84781 -7.16614 
2812 2 5.43062 -5.59945 -6.73828 
3212 2 5.07538 -4.94045 -6.56238 
1526 1 6.20928 -5.84601 -6.01764 
639 1 7.09648 -4.89785 -6.10187 
10 1 6.56927 -5.15063 -6.98853 
1362 1 6.21997 -4.93804 -5.99685 
2479 1 6.04191 -4.42414 -6.70159 
304 1 -6.85104 -4.22675 -5.89521 
3495 2 -7.11491 -4.48905 -7.1591 
1459 1 -6.06659 -3.88496 -6.48945 
923 1 -5.21575 -4.15227 -6.55294 
1918 1 -5.65548 -4.73835 -6.89719 
3041 2 -3.38255 -3.16903 -5.89085 
386 1 -3.97069 -3.83737 -6.94895 
3061 2 -3.24073 -3.95175 -6.04344 
37 1 -3.07158 -3.38795 -7.08906 
128 1 -2.30116 -3.53946 -6.42279 
2808 2 -0.97116 -4.21278 -7.05503 
842 1 -0.247245 -4.40148 -5.99563 
2105 1 0.072347 -3.28859 -5.95253 
2589 1 0.338389 -4.01665 -6.6636 
40 1 1.27365 -4.11269 -6.32214 
502 1 0.872085 -3.3236 -6.28189 
1738 1 1.61267 -2.99585 -6.2483 
2599 1 1.81442 -3.66367 -6.666 
985 1 2.91299 -3.88979 -6.97233 
1168 1 2.22275 -4.42876 -6.86866 
2407 1 3.86988 -4.1907 -6.45016 
388 1 3.53731 -3.50808 -6.73935 
3266 2 4.91812 -4.21194 -6.57498 
2767 2 4.86908 -3.50646 -6.26504 
3029 2 7.08702 -3.75502 -6.88766 
1372 1 6.0099 -3.58885 -6.44609 
2015 1 6.75031 -4.132 -5.91084 
1354 1 -6.651 -3.281 -6.13042 
1078 1 -6.21631 -3.24704 7.20232 
1671 1 -5.19068 -3.20012 -6.11511 
1581 1 -5.79018 -2.92856 -6.51215 
2699 1 -4.35917 -3.19567 -6.66394 
1445 1 -4.62194 -2.40944 -6.3226 
1370 1 -3.76889 -2.57399 -6.94139 
2289 1 -2.8314 -2.27917 -6.68962 
821 1 -2.38904 -2.85441 -5.97726 
433 1 -2.23739 -1.94391 -7.17674 
3332 2 -1.06326 -3.4212 -6.70207 
3234 2 -1.31229 -2.67385 -6.39711 
1094 1 -0.0279162 -3.08069 -6.77258 
1767 1 -0.183661 -2.32642 -6.23941 
250 1 0.530932 -2.503 -5.92415 
1946 1 -0.329535 -2.13963 7.18226 
2804 2 0.858138 -1.92631 -6.99484 
3347 2 0.920194 -2.69003 -7.18031 
2178 1 1.98924 -2.29419 -6.70054 
1834 1 2.7572 -2.96535 -6.7807 
1976 1 4.29338 -3.35672 7.07169 
2500 1 4.33597 -2.23678 -7.09516 
1859 1 3.69895 -2.6271 -6.62921 
3550 2 4.77264 -2.6569 -5.99921 
2360 1 5.79171 -2.86012 -6.65695 
2975 2 6.95792 -2.92353 -6.80349 
802 1 6.14079 -3.4528 -5.5824 
3126 2 6.66686 -2.17433 -6.84978 
670 1 -6.47638 -2.30062 -6.24222 
2126 1 -6.52383 -1.52611 -6.60201 
194 1 -6.44771 -0.714339 -6.01686 
1392 1 -5.37392 -2.08905 -5.97078 
2578 1 -4.61163 -1.66354 -6.25574 
395 1 -3.83978 -1.64497 -6.85015 
2677 1 -4.45156 -0.924679 -7.18812 
900 1 -2.98992 -1.28835 -6.54772 
902 1 -2.41603 -1.04104 -6.9987 
174 1 -3.18797 -0.475835 -6.48443 
3105 2 -1.64181 -1.8973 -6.26111 
3200 2 -1.73507 -0.993924 -6.10908 
2108 1 -0.783505 -1.4797 -6.50916 
84 1 1.6078 -1.57866 -6.15425 
3151 2 0.431386 -1.30223 -6.77098 
1938 1 1.44097 -0.944067 -7.0106 
42 1 1.81069 -0.457809 -6.42279 
3088 2 0.248226 -0.630945 -6.64037 
2558 1 2.93741 -2.1013 -6.71509 
366 1 2.58896 -1.24887 -6.39743 
3195 2 2.82166 -0.859346 6.96371 
1374 1 2.13317 -1.54394 -7.13777 
2617 1 3.74862 -1.26383 -6.61009 
1111 1 4.00215 -0.421089 -6.66775 
2995 2 4.58615 -1.15202 -5.85062 
2972 2 4.60921 -1.90056 -6.067 
377 1 5.75525 -1.77739 -6.31378 
2477 1 4.76824 -0.853602 -6.90394 
1414 1 5.43176 -0.888952 -6.43758 
2183 1 5.1823 -1.85041 -7.07793 
3087 2 6.85354 -1.41724 -6.39671 
1806 1 5.91718 -0.831961 -7.19383 
2510 1 -6.69697 -0.62997 -6.8079 
253 1 -6.61319 0.234757 -6.25752 
3097 2 -5.69153 -0.240101 -6.85768 
3127 2 -5.80707 0.54652 -6.7939 
1457 1 -4.00931 -0.605215 -6.58792 
2300 1 -4.68652 -0.369345 -6.23837 
1815 1 -3.59838 0.205855 -6.21931 
1027 1 -4.35736 0.427466 -6.63584 
1745 1 -2.4157 0.0558132 -6.78629 
1993 1 -1.55497 -0.652312 -7.19124 
1265 1 -1.57986 0.168708 -6.93126 
75 1 -0.851463 0.361906 -6.15552 
28 1 -0.905161 -0.468254 -6.54951 
3311 2 0.520486 0.121603 -6.65074 
2928 2 0.414749 0.900018 -6.42244 
603 1 -0.681301 -0.0493521 7.16474 
2329 1 -0.583648 0.690841 -7.02913 
1241 1 1.50856 0.4622 -6.70002 
1713 1 1.21362 0.343752 -5.8077 
2960 2 2.68073 0.0106102 7.16393 
530 1 2.40087 0.200036 -6.07375 
2535 1 3.38427 0.52717 -6.22191 
1997 1 1.88582 0.825187 -6.04514 
1698 1 2.98758 -0.252387 -6.18123 
1895 1 3.86733 0.333751 -6.86909 
565 1 4.77432 0.117446 -6.53815 
263 1 5.64074 -0.00740249 -6.71242 
2072 1 5.42941 0.805104 -6.07239 
2840 2 6.61399 -0.6166 -6.38026 
2797 2 6.57615 0.2686 -6.26389 
2151 1 -6.82184 1.23189 -6.30367 
3140 2 -5.9581 1.77175 -6.54192 
571 1 -6.98266 0.709338 -7.05813 
1229 1 -6.96151 1.97977 -6.94488 
3007 2 -5.57022 1.12633 -6.45211 
2386 1 -4.63553 1.82597 -6.50293 
2180 1 -3.49468 1.2315 -6.00725 
499 1 -4.47481 1.12121 -6.01655 
2560 1 -3.98325 1.99633 -5.81257 
3148 2 -3.72846 1.56943 -7.04208 
743 1 -2.77797 0.839545 -6.38962 
1238 1 -3.01478 1.8118 -6.27717 
1116 1 -2.36574 1.44344 -6.85724 
337 1 -1.41915 1.09159 -6.54165 
1978 1 -0.685576 1.5469 -6.71953 
1353 1 -1.80586 2.02121 -6.49379 
3078 2 0.458623 1.59818 -6.11848 
1368 1 1.27057 2.18644 -6.47011 
171 1 1.2898 1.31449 -6.95574 
221 1 1.63146 1.7439 -5.879 
3459 2 2.65482 0.867911 -7.02861 
3393 2 2.3 1.62161 -6.71535 
850 1 4.51804 1.08611 -6.37912 
1185 1 3.5698 1.40851 -6.44265 
2380 1 3.59572 1.15399 7.07809 
2086 1 5.70077 0.875296 -6.93404 
1927 1 5.28472 1.76037 -6.43192 
3135 2 6.46707 0.968037 -5.90774 
1684 1 6.74942 1.60203 -6.89798 
3465 2 -5.92664 2.67865 -6.23115 
141 1 -5.07341 2.56041 -7.0097 
2200 1 -5.04971 3.60403 -6.46416 
1335 1 -4.88066 2.80081 -6.23028 
3093 2 -3.72157 2.3444 -7.00731 
2783 2 -3.99202 3.03306 -6.8686 
732 1 -2.86472 3.12077 -7.17359 
561 1 -3.04105 2.81512 -6.06428 
1894 1 -2.39875 2.65284 -6.60779 
2508 1 -0.845315 2.4514 -6.8083 
1744 1 -1.40751 2.71111 -6.2342 
3444 2 0.221752 2.35845 -6.2378 
2000 1 0.531565 2.97044 -7.07132 
1098 1 1.25219 2.90592 -6.26759 
3478 2 2.28927 3.10398 -6.41454 
3417 2 2.31489 2.50915 -6.87793 
50 1 4.20603 1.99215 -6.31455 
1889 1 3.54439 2.72915 -6.61431 
2765 2 4.34083 3.1933 -7.12074 
1113 1 4.0558 3.06285 -5.94593 
2276 1 3.41925 1.97582 -7.10412 
889 1 5.92263 1.64123 -6.79837 
1515 1 5.42019 2.67169 -6.46408 
1584 1 -6.96888 3.19536 -6.81346 
122 1 7.11692 2.52699 -6.47563 
131 1 6.26368 2.57378 -6.85137 
2736 2 -6.19846 3.37097 -6.04935 
1760 1 -6.57291 3.90962 7.19598 
3238 2 -6.4369 4.1904 -5.87921 
1879 1 -6.2097 4.922 -6.80402 
1318 1 -5.7764 4.03076 -6.95512 
3408 2 -3.95143 3.80634 -6.48408 
3411 2 -3.94011 4.58196 -6.59812 
343 1 -2.72441 3.65555 -6.31388 
1030 1 -3.0551 3.96315 -7.07012 
715 1 -3.13663 4.42297 -5.82505 
1932 1 -0.392898 3.15475 -7.01006 
989 1 -1.88368 3.42142 -6.20986 
1499 1 -1.00599 3.61999 -6.53294 
883 1 -2.02871 4.2812 -6.17556 
474 1 0.13982 3.96678 -6.75899 
1016 1 0.917139 3.59278 -6.72223 
3138 2 1.78737 4.67928 -6.19206 
849 1 0.726373 4.58674 -6.07069 
588 1 3.30778 3.67647 -6.02258 
3466 2 1.95826 3.73294 -6.36316 
614 1 3.16315 3.57495 -6.95053 
1066 1 3.12677 4.50554 -6.38917 
3551 2 4.32785 3.93207 -6.8889 
2305 1 5.66237 3.60739 -6.56047 
2066 1 4.94765 3.42082 -5.98833 
404 1 5.30196 4.38443 -6.32371 
2594 1 6.70977 3.40238 -6.34059 
248 1 6.37866 4.30141 -6.2021 
577 1 -7.07592 4.2543 -6.63207 
66 1 -6.43113 5.81274 -6.85199 
2396 1 -5.7138 5.34871 -6.185 
1669 1 -5.18953 4.85484 -7.17506 
3471 2 -4.15044 5.33239 -6.56434 
233 1 -3.42576 5.90761 -7.12045 
59 1 -2.99309 5.01275 -6.7752 
2832 2 -2.12687 5.40285 7.13095 
287 1 -2.65121 5.15769 -6.00852 
597 1 -0.875287 4.90498 7.13089 
2839 2 -1.96212 4.45363 7.03038 
1652 1 -1.09397 5.46052 -6.69769 
1253 1 -1.08926 4.49962 -6.38667 
2630 1 -0.394996 5.85666 -6.4761 
2626 1 -0.103545 4.87078 -6.71143 
2429 1 0.573893 5.37589 -6.59709 
2831 2 1.72661 5.55767 -5.95883 
1141 1 0.590067 5.7374 -5.69233 
1923 1 2.53512 4.55823 -7.03222 
295 1 2.59568 5.32961 -6.49262 
3223 2 4.11964 5.05618 -6.82578 
2790 2 3.87538 5.72158 -6.71803 
1247 1 5.03794 5.38454 -6.22298 
2160 1 4.74655 6.02377 7.02054 
112 1 6.80562 5.14844 -6.14932 
795 1 5.88649 5.29544 -6.11429 
1530 1 6.84737 6.0707 -6.41826 
2905 2 6.14737 5.84066 7.07402 
1954 1 6.84792 7.03727 -6.43521 
558 1 -6.74094 6.78764 -6.64698 
1004 1 -5.84825 6.34003 -6.22984 
3463 2 -4.76196 5.80581 -6.53946 
1415 1 -5.5526 6.8369 -6.99326 
3150 2 -4.50192 6.38444 -6.07568 
2002 1 -3.55057 6.75706 -6.41711 
3454 2 -2.30882 6.17716 -7.0666 
3268 2 -2.52075 6.99354 -6.62295 
345 1 -1.22917 6.53442 -6.56796 
658 1 -1.75652 7.12076 -5.84446 
1394 1 -1.67377 6.00949 -6.06261 
741 1 -1.18151 6.0163 7.00581 
1702 1 -0.579129 6.76453 -6.17403 
798 1 0.311231 6.50805 -6.34578 
1709 1 0.126147 6.4869 -5.29232 
2322 1 0.790954 6.09919 -7.04076 
725 1 1.77134 6.32278 -6.94613 
2899 2 1.54746 6.34329 -6.02244 
2669 1 2.54017 6.37123 -6.4475 
3569 2 3.61329 6.51538 -6.62487 
3587 2 3.40708 -7.15652 -6.37855 
244 1 6.0001 6.11057 -6.25641 
805 1 4.64901 6.97611 -6.70275 
1295 1 4.56438 6.44319 -5.92086 
2088 1 5.11049 6.05602 -6.66295 
2136 1 6.39809 6.41527 -5.60932 
3539 2 5.92619 6.5878 7.10963 
2023 1 -6.35887 -6.33191 -5.73469 
1893 1 -6.01871 -6.86233 -5.04354 
2747 2 7.10641 -6.95137 -5.52339 
3477 2 -4.88084 7.16823 -5.98749 
1772 1 -4.62085 -6.79785 -4.82358 
1481 1 -5.31414 -6.27802 -4.82032 
1148 1 -4.79313 -5.894 -4.33372 
1725 1 -4.22927 -6.38894 -5.41357 
1344 1 -3.54609 -5.92618 -5.41884 
1227 1 -3.65938 -7.01766 -5.71059 
1691 1 -2.83786 -6.5825 -5.45469 
1252 1 -2.34771 -6.90158 -4.83699 
520 1 -2.00946 -6.48328 -5.76315 
3594 2 -1.21625 -6.62298 -4.95852 
1567 1 -0.0879819 -6.36456 -5.96007 
1881 1 -0.18286 -5.90879 -5.153 
3128 2 1.20117 -6.60628 -5.58955 
2826 2 0.87161 -5.92285 -5.5544 
1249 1 1.25407 -6.99788 -4.36245 
862 1 2.25165 -6.19992 -5.26167 
1992 1 3.13397 -7.08925 -5.18685 
224 1 3.09877 -6.14372 -4.7817 
1689 1 2.1631 -6.97681 -4.97022 
1175 1 2.38785 -6.68428 -6.04342 
281 1 4.05998 -6.41026 -5.38088 
209 1 5.51014 -6.50791 -5.69054 
3290 2 4.76405 -5.8576 -4.54067 
329 1 4.57067 -6.89386 -5.94173 
3487 2 6.97764 -6.19383 -5.38544 
317 1 6.199 -6.83936 -6.08685 
1000 1 6.03915 -6.2313 -4.95325 
538 1 6.07326 7.06069 -5.06237 
355 1 -6.40983 -5.21562 -5.54005 
1718 1 -6.15368 -5.75517 -4.83758 
3416 2 -5.41379 -5.92917 -5.80212 
2912 2 -5.36125 -4.65429 -5.6105 
1733 1 -4.78517 -4.89393 -4.64048 
1361 1 -3.85776 -4.93181 -5.56277 
1885 1 -4.39743 -5.63308 -5.19117 
2350 1 -2.92027 -4.98043 -5.30517 
1582 1 -2.46468 -5.75498 -5.36845 
1836 1 -2.28365 -4.8437 -5.69632 
2453 1 -2.62627 -5.95374 -4.57869 
1643 1 -1.21586 -5.95579 -5.90675 
3322 2 -1.55884 -5.87764 -4.7902 
3480 2 -1.48062 -5.11936 -5.01097 
2491 1 -0.484782 -5.43074 -5.79936 
15 1 -0.31436 -4.89738 -5.08213 
3068 2 0.731784 -5.07302 -5.31591 
2256 1 1.87727 -5.54989 -5.47961 
1998 1 1.38902 -5.29195 -4.42895 
1075 1 2.2185 -5.43561 -4.77394 
1695 1 4.146 -4.89556 -5.6049 
2462 1 3.80596 -5.51086 -4.97874 
628 1 4.68869 -5.71412 -5.68789 
589 1 5.07839 -4.88663 -5.44218 
1320 1 5.65794 -4.67303 -4.75617 
1724 1 5.63518 -5.50333 -5.38929 
2825 2 4.58818 -5.10278 -4.22647 
2828 2 7.00508 -5.35232 -4.95494 
85 1 5.85519 -5.3671 -4.42641 
2106 1 -6.46378 -4.50507 -5.19839 
1325 1 -7.01519 -3.61505 -5.12378 
2737 2 -5.47624 -3.96098 -5.34045 
1609 1 -4.61035 -4.03828 -4.54616 
1784 1 -4.31495 -4.40773 -5.4213 
1071 1 -4.37523 -3.70094 -5.90391 
2248 1 -3.73234 -3.92556 -4.84373 
2426 1 -2.11265 -3.99564 -5.70385 
909 1 -2.85925 -4.18104 -4.98287 
1979 1 -2.60267 -3.32854 -5.13458 
139 1 -0.746039 -3.72621 -5.43933 
2238 1 -1.26909 -4.15786 -5.76906 
1722 1 -0.350581 -4.02823 -4.77912 
3227 2 0.544049 -3.51152 -4.97547 
799 1 1.80847 -4.18802 -5.622 
2113 1 2.0452 -4.64242 -5.01966 
2768 2 0.67255 -4.26311 -5.36633 
1611 1 1.58393 -3.31899 -5.36888 
3249 2 2.87265 -4.4835 -5.89465 
891 1 1.83534 -3.56843 -4.68048 
3014 2 2.71011 -3.64826 -5.77392 
1863 1 2.72813 -4.08212 -4.77034 
2150 1 3.60218 -4.39646 -4.95104 
1385 1 3.8714 -3.97242 -5.65496 
2145 1 3.61585 -3.51109 -4.99747 
2656 1 4.80203 -4.10258 -5.36446 
452 1 5.72781 -4.30814 -5.70135 
1034 1 5.46706 -3.71922 -4.66213 
3010 2 6.69144 -4.67279 -4.93574 
3080 2 6.47483 -3.99224 -4.60184 
351 1 -6.90752 -2.34238 -5.64115 
831 1 -6.85346 -2.79229 -4.85536 
1800 1 -4.73459 -2.61139 -5.48985 
2890 2 -5.89744 -3.33402 -5.23353 
2974 2 -5.89074 -2.53815 -5.2139 
1465 1 -4.44374 -3.22765 -4.99457 
477 1 -3.93364 -2.23549 -4.62688 
2869 2 -3.65036 -2.41362 -5.66066 
2844 2 -3.76281 -1.55143 -5.59947 
1790 1 -2.72458 -2.44421 -5.05969 
1953 1 -1.77992 -2.28042 -5.2453 
484 1 -2.64359 -2.00275 -5.93237 
2139 1 -1.70521 -3.12023 -5.39705 
2480 1 -0.946165 -1.61486 -5.30661 
851 1 -0.651213 -2.48103 -5.38307 
3430 2 0.309406 -2.66564 -4.8442 
3354 2 0.149549 -1.88137 -4.72699 
2187 1 1.30372 -2.2325 -5.60223 
247 1 1.45075 -2.58265 -4.81577 
2830 2 2.63225 -2.8072 -5.68745 
3356 2 2.48572 -2.01968 -5.39057 
480 1 3.47503 -2.57659 -5.06947 
1313 1 3.67262 -2.92443 -5.86978 
190 1 4.64662 -3.35773 -5.12 
1472 1 3.54419 -1.91352 -5.98973 
153 1 4.51757 -2.39323 -5.06273 
72 1 5.27466 -2.66059 -4.69347 
734 1 5.52738 -3.19822 -5.3337 
659 1 6.9777 -3.01629 -5.71626 
1207 1 5.92159 -2.57975 -5.87424 
720 1 -6.72344 -1.44526 -5.63429 
2993 2 -5.84285 -1.79218 -5.00448 
3267 2 -6.01412 -1.02688 -4.79546 
83 1 -4.79463 -1.64602 -5.25266 
1340 1 -5.93903 -1.48808 -6.12284 
56 1 -4.86636 -1.13879 -4.55509 
3543 2 -3.93127 -0.698928 -5.40018 
2718 1 -2.72538 -1.19088 -5.59393 
1928 1 -3.17404 -1.03521 -4.65308 
1380 1 -2.20494 -1.44576 -4.97555 
1057 1 -0.293279 -1.48615 -5.82534 
1074 1 -1.32811 -0.776017 -5.17834 
1837 1 0.610899 -1.63599 -5.81924 
925 1 1.25371 -1.36275 -5.33875 
175 1 1.07247 -0.776683 -5.87638 
1777 1 0.28732 -0.632583 -5.50462 
3557 2 2.35887 -1.21309 -5.24206 
3449 2 1.93939 -0.530221 -5.24353 
110 1 3.65008 -1.87743 -5.18078 
2336 1 4.11995 -1.33004 -4.87745 
859 1 3.28259 -1.08788 -5.76847 
2352 1 5.57981 -2.09827 -5.3786 
1830 1 5.24538 -0.995634 -4.96492 
656 1 5.94517 -1.2735 -5.60925 
148 1 4.98139 -1.73333 -4.70395 
346 1 6.69475 -2.10691 -5.58675 
2297 1 6.99501 -1.05029 -5.11241 
1145 1 -7.08551 -0.407011 -5.58773 
3186 2 -6.33777 -0.347033 -4.55653 
2132 1 -5.15105 -0.340825 -5.00469 
2641 1 -5.02956 -1.04941 -5.82942 
90 1 -5.02599 0.312126 -5.77681 
1151 1 -5.63875 -0.435066 -5.75185 
408 1 -5.29443 0.459323 -4.86208 
3256 2 -4.13674 -0.034106 -5.08012 
3144 2 -4.14309 0.703201 -5.00119 
2077 1 -2.01454 -0.50989 -4.85269 
827 1 -2.85091 -0.291935 -5.41117 
969 1 -2.9672 -0.190278 -4.60406 
2605 1 -2.28364 0.461028 -4.81196 
400 1 -1.03601 0.156183 -5.3753 
2796 2 -1.95403 -0.0470268 -5.87988 
1880 1 -1.10569 0.83973 -5.0585 
1618 1 -0.637451 -0.64493 -5.68435 
1432 1 -0.117486 0.106928 -5.6046 
1890 1 0.693237 0.105897 -5.25294 
886 1 3.38087 0.458232 -4.60647 
3383 2 1.86194 0.184848 -4.94722 
2730 1 2.94919 0.844315 -5.46176 
236 1 2.97283 -0.0655652 -5.25006 
2848 2 4.09688 0.371429 -5.3353 
3317 2 4.28682 -0.401715 -5.68382 
140 1 5.52603 -0.233272 -5.80328 
823 1 5.11102 -0.212961 -4.83283 
1568 1 5.10409 0.773254 -5.32263 
1999 1 6.27448 -0.409869 -5.16166 
1402 1 -6.85505 0.785259 -5.47553 
1575 1 7.09819 0.130395 -4.97632 
319 1 5.9425 0.470152 -5.12992 
1841 1 -6.12573 0.210417 -5.51304 
806 1 -6.18993 1.38311 -5.39166 
1369 1 -5.23841 1.16668 -5.48143 
443 1 -4.97398 2.03576 -5.72909 
1607 1 -5.29215 1.41659 -4.59664 
2320 1 -3.14786 1.56155 -5.30631 
3062 2 -4.57298 2.27287 -4.70511 
2861 2 -4.10006 1.59124 -4.85997 
580 1 -3.07803 0.519559 -5.5168 
2846 2 -2.04857 1.65458 -5.50134 
2208 1 -0.62957 1.12663 -5.7298 
2939 2 -2.01229 0.716525 -5.70922 
1775 1 -1.10923 1.7278 -4.87018 
867 1 0.0338868 0.966022 -5.41097 
1661 1 -0.139048 1.91947 -5.18495 
2708 1 0.655647 1.41919 -4.27848 
2406 1 1.10107 1.1637 -5.41339 
1375 1 0.868418 1.88537 -5.13049 
970 1 2.52488 1.49462 -5.76253 
3443 2 1.94832 0.902535 -4.72266 
2575 1 3.05031 1.24446 -4.61706 
3364 2 4.00465 1.20761 -5.36546 
3388 2 3.89347 1.92039 -5.18994 
2068 1 4.83348 0.990838 -4.54486 
941 1 5.28028 1.93631 -4.70961 
2584 1 5.16709 1.70242 -5.5849 
3038 2 6.49997 1.78484 -5.76355 
2130 1 5.80888 1.30518 -4.88523 
1200 1 -7.16666 1.51919 -4.91614 
2690 1 -6.77007 2.01287 -5.79508 
1169 1 -6.43827 2.614 -5.18658 
13 1 -5.63079 2.05443 -5.095 
92 1 -5.93016 3.3021 -4.91018 
928 1 -5.17079 2.98804 -5.34741 
2845 2 -4.49026 3.13093 -4.36163 
2523 1 -4.16942 2.89247 -5.62615 
1965 1 -2.96538 2.29176 -4.7054 
3456 2 -4.77401 3.96033 -4.34883 
2037 1 -3.33508 2.42695 -5.41977 
3117 2 -2.10777 2.43818 -5.3105 
1933 1 -0.795877 1.91258 -5.89991 
2489 1 -1.42617 2.57783 -4.30889 
46 1 -1.03487 2.55917 -5.09962 
2813 2 -0.104722 2.94909 -5.8918 
1763 1 0.443698 2.49405 -4.68589 
2271 1 1.12122 2.70035 -5.43279 
673 1 2.07603 2.58637 -5.49868 
1286 1 3.20411 2.13732 -6.05029 
47 1 2.85611 2.04907 -5.04853 
785 1 3.18637 2.94703 -5.62567 
1644 1 2.6995 2.89844 -4.8393 
3433 2 3.94514 2.60228 -4.82058 
2327 1 4.98281 2.56746 -5.17034 
1883 1 4.69109 2.56674 -5.958 
3060 2 6.06069 2.43856 -5.58873 
698 1 6.87321 2.35431 -4.86835 
3414 2 5.96833 3.07155 -5.3145 
1466 1 6.73754 3.16724 -4.72029 
2541 1 7.11991 2.88531 -5.72621 
1939 1 -6.8761 3.55387 -5.11772 
60 1 -6.08879 4.08824 -4.63513 
1060 1 -6.74765 4.65297 -4.58562 
822 1 -5.28451 3.70574 -5.32305 
2268 1 -5.27877 4.39594 -6.17387 
1833 1 -3.17521 3.67879 -5.56685 
1224 1 -4.3633 3.72705 -5.42305 
668 1 -3.76271 4.69062 -5.27534 
1543 1 -4.4793 4.61501 -5.63147 
2490 1 -3.53022 3.14543 -4.95341 
2945 2 -2.25702 3.30424 -5.10815 
2977 2 -2.38653 4.10316 -4.92917 
197 1 -1.37838 4.24711 -5.40709 
1056 1 -1.17043 3.30667 -5.52285 
2647 1 -1.22243 3.424 -4.60602 
3378 2 -0.211893 3.77852 -5.68479 
1201 1 -0.0684521 3.76927 -4.35825 
353 1 -0.346812 3.11602 -4.71405 
2522 1 0.773142 3.58963 -5.94539 
894 1 1.13286 4.16167 -5.28413 
1639 1 1.52515 3.36535 -5.34979 
1089 1 0.570581 3.38938 -4.92415 
23 1 1.94924 4.5448 -5.03437 
324 1 2.44811 3.68942 -5.23762 
268 1 4.13028 4.0354 -5.78826 
2894 2 3.8294 3.33257 -4.77123 
3013 2 3.43718 4.06229 -4.76774 
2092 1 4.65623 4.64516 -5.88968 
1398 1 4.73926 3.54191 -5.13619 
839 1 4.69036 4.43034 -4.95066 
115 1 6.94387 3.89467 -5.65289 
3298 2 5.89131 3.86215 -5.25854 
2546 1 6.92378 4.03517 -4.57906 
3045 2 -6.63595 5.04625 -5.64142 
3147 2 -6.69439 5.86101 -5.65533 
2573 1 -5.88883 5.39902 -4.85747 
297 1 -5.71151 4.46753 -5.20008 
2308 1 -5.1772 5.19758 -5.66893 
2376 1 -4.26419 5.50308 -5.29585 
803 1 -3.58332 5.45772 -5.68526 
1862 1 -3.84508 5.15199 -4.4123 
1140 1 -3.04615 6.01678 -6.31055 
2865 2 -2.70487 4.92271 -4.83887 
2326 1 -1.78198 5.21967 -6.19536 
1665 1 -1.58953 5.1057 -5.32734 
1577 1 -1.88398 5.89627 -5.04064 
3392 2 -0.217348 4.56064 -5.56552 
3207 2 -0.456791 5.35402 -5.58675 
1521 1 0.482921 4.41108 -4.70496 
586 1 1.07794 5.06034 -5.01793 
103 1 2.74305 4.54174 -5.55741 
2028 1 2.94448 5.59343 -5.78634 
372 1 2.26477 5.34616 -5.16524 
2414 1 4.49063 5.33382 -4.72212 
2231 1 3.76958 4.91508 -5.79947 
2814 2 3.47096 4.90244 -4.9254 
908 1 4.31216 5.51363 -5.54992 
2917 2 5.76153 4.61671 -5.11521 
2927 2 5.565 5.54429 -5.0281 
1667 1 6.78161 4.72469 -5.24356 
2539 1 7.05209 5.45637 -4.80874 
2703 1 6.54415 4.74678 -4.3227 
2574 1 -5.97927 6.38707 -4.69987 
3330 2 -6.95846 6.63934 -5.48574 
1616 1 -5.82361 6.94121 -5.63019 
683 1 -5.60779 5.98745 -5.46553 
1490 1 -5.25976 7.12699 -4.88654 
1235 1 -4.87685 6.17318 -5.07201 
1396 1 -3.51546 6.22698 -5.56723 
964 1 -4.10111 6.87134 -5.08687 
1619 1 -2.91252 6.88899 -5.59003 
356 1 -2.03898 6.75635 -5.02893 
786 1 -2.43227 6.03717 -5.7933 
3455 2 -0.830395 7.04754 -5.12133 
3018 2 -0.852404 6.16919 -5.28057 
26 1 0.0474178 -7.00749 -5.48028 
1107 1 0.705668 6.55808 -4.78247 
924 1 1.52718 5.85676 -4.64279 
1435 1 0.457657 5.57599 -4.89791 
2978 2 1.17573 7.02676 -5.64557 
504 1 2.16165 6.4263 -5.06226 
492 1 2.45571 6.9791 -5.94794 
1051 1 4.04423 7.05762 -5.41992 
1513 1 3.71174 6.0873 -5.36122 
2172 1 3.96806 6.95469 -4.5401 
451 1 4.08111 6.09368 -4.50887 
302 1 2.98163 6.39052 -5.47526 
274 1 5.45612 6.83777 -5.90652 
3257 2 5.17464 6.37121 -5.09551 
2971 2 5.00323 7.09253 -4.68914 
16 1 6.58155 5.66071 -5.35462 
2473 1 6.70605 6.33362 -4.57494 
1673 1 -6.58429 -6.53308 -4.44902 
2162 1 -6.81737 -6.6121 -3.35339 
3228 2 -5.73161 -6.73121 -3.84571 
3375 2 -5.87628 -5.99758 -3.65961 
2332 1 -4.57592 -6.83204 -3.92555 
2835 2 -3.60504 -6.52947 -4.36731 
959 1 -3.76756 -6.69804 -3.15748 
3265 2 -3.33465 7.10366 -4.33545 
1506 1 -3.09048 -6.27284 -3.14771 
2033 1 -2.2733 -6.30981 -3.86658 
1630 1 -2.69323 -6.97224 -3.67062 
1629 1 -1.48288 -6.8834 -3.8564 
1143 1 -1.00889 -6.13721 -3.767 
3236 2 0.296927 -6.50621 -3.26301 
1945 1 -0.250587 -6.41899 -4.30799 
2096 1 0.356862 -6.92428 -4.67273 
3056 2 0.707787 -7.17009 -3.4971 
1416 1 1.74188 -6.13229 -4.55586 
1382 1 0.704683 -6.09764 -4.4306 
1967 1 1.55847 -6.35521 -3.52403 
3303 2 2.67578 -6.67062 -3.89919 
2918 2 2.46527 -5.82104 -3.69095 
893 1 3.56805 -5.78129 -3.94287 
1358 1 4.23672 -5.6212 -3.31076 
440 1 3.84232 -6.59928 -4.41917 
2315 1 3.22127 -6.14696 -3.04974 
2926 2 5.04909 -6.52457 -4.75667 
144 1 5.24719 -6.00617 -3.61961 
2469 1 4.69667 -6.60419 -3.54521 
2571 1 6.03497 -6.58109 -4.1584 
2029 1 7.09997 -6.43339 -4.18813 
610 1 6.73155 -7.19491 -4.37547 
1872 1 -6.64555 -5.31427 -4.26061 
2309 1 -6.2019 -4.57516 -4.41253 
582 1 -4.66525 -5.5513 -3.67053 
2896 2 -5.71392 -5.22193 -3.44717 
2318 1 -5.59481 -5.19946 -4.65946 
2459 1 -4.98513 -4.57965 -3.69882 
3413 2 -3.66206 -5.70348 -4.05361 
3562 2 -3.57654 -5.0556 -4.49202 
104 1 -2.54105 -5.08705 -4.47055 
2439 1 -2.71304 -5.54785 -3.68881 
458 1 -1.89159 -4.76978 -3.56972 
1127 1 -0.9871 -5.0534 -3.52528 
401 1 -1.73633 -5.62715 -3.86038 
635 1 -0.535722 -5.5306 -4.24756 
1431 1 -0.305365 -4.53668 -4.09093 
27 1 0.28721 -5.3616 -4.29761 
1511 1 1.14008 -5.55893 -3.67018 
3379 2 2.26505 -5.03902 -3.68772 
665 1 3.36618 -4.90503 -4.01483 
847 1 3.02037 -5.06587 -4.77074 
3340 2 4.32607 -4.46124 -4.2512 
2695 1 4.88944 -5.14374 -3.10092 
1493 1 5.60538 -5.22934 -3.63431 
1994 1 6.53777 -5.8181 -4.09363 
1955 1 6.52552 -4.93991 -3.84132 
472 1 -7.0945 -4.59203 -3.91273 
2721 1 -6.64185 -3.95172 -4.42397 
874 1 -5.4704 -4.01399 -4.12368 
935 1 -4.95249 -3.61114 -3.34341 
3536 2 -3.79246 -4.62304 -3.87487 
3376 2 -3.92252 -3.7217 -3.72049 
2524 1 -2.57368 -4.46931 -3.90066 
647 1 -2.49752 -3.582 -3.3824 
728 1 -1.73226 -4.01923 -3.18676 
2496 1 -2.96372 -4.40028 -3.24597 
180 1 -0.907995 -4.1592 -3.60874 
3285 2 -1.58163 -4.44946 -4.62815 
322 1 -1.1265 -3.00925 -3.41583 
2102 1 0.410223 -3.94271 -3.96694 
1799 1 0.872028 -4.57866 -4.13141 
954 1 -0.507065 -3.49003 -3.96455 
1843 1 1.06223 -2.71207 -3.95969 
393 1 1.46633 -4.34842 -4.68864 
1069 1 1.19251 -3.44394 -4.1216 
3230 2 2.2511 -4.22119 -3.67012 
3015 2 2.06883 -3.5439 -3.53711 
999 1 2.8459 -3.12694 -4.4805 
1653 1 3.35757 -4.06649 -3.98698 
3244 2 4.41799 -3.62393 -4.10332 
2857 2 4.21442 -2.78682 -4.11946 
742 1 3.3134 -3.47024 -3.4236 
2239 1 5.15297 -3.87176 -3.48482 
335 1 5.63616 -4.398 -3.83042 
1703 1 5.44902 -3.03617 -3.99917 
1658 1 6.90433 -3.70574 -3.31536 
431 1 5.99868 -3.59766 -3.57217 
1144 1 -6.09986 -3.33831 -4.21664 
1449 1 -6.3522 -2.31647 -3.99922 
1707 1 -5.44198 -2.58211 -4.08485 
517 1 -7.09705 -3.24177 -4.00709 
2388 1 -5.14843 -3.24402 -4.35422 
572 1 -5.34337 -2.79108 -3.18919 
3229 2 -4.27317 -2.11019 -3.67676 
1864 1 -3.52863 -2.96812 -4.70341 
871 1 -3.18933 -1.94321 -4.40682 
3083 2 -4.10518 -2.87735 -3.71406 
2310 1 -2.92876 -3.50593 -4.21426 
2638 1 -3.11142 -2.67839 -3.85825 
1028 1 -0.741549 -3.12156 -4.90334 
3198 2 -2.01009 -2.72788 -4.22023 
2916 2 -1.69869 -3.60029 -4.29219 
1266 1 -1.51198 -2.20096 -3.15072 
2044 1 -0.991754 -2.41494 -4.39743 
2298 1 0.219436 -2.9593 -3.82089 
984 1 -0.479531 -2.41645 -3.68984 
2542 1 0.181435 -1.92665 -3.34439 
202 1 2.12108 -1.71837 -4.231 
858 1 0.933625 -1.85976 -3.8372 
1237 1 2.22619 -2.46289 -4.4597 
303 1 3.0115 -2.6911 -3.80268 
3320 2 2.05655 -2.76795 -3.23393 
3353 2 4.06572 -1.96262 -3.89238 
2211 1 5.2135 -2.23546 -3.80072 
2365 1 4.95259 -2.72375 -3.26927 
3173 2 6.37288 -2.94666 -4.61657 
2858 2 6.37928 -2.11421 -4.45754 
1496 1 6.54884 -2.99019 -3.43908 
423 1 5.96492 -2.26597 -3.31888 
1299 1 7.17548 -2.34854 -3.74384 
960 1 -6.92611 -1.42113 -4.19817 
808 1 -5.2637 -1.78384 -3.82955 
1446 1 -4.91123 -2.30135 -4.73641 
1551 1 -6.20422 -1.41668 -3.63163 
2674 1 -3.97526 -1.28263 -4.45879 
2465 1 -3.42698 -1.45726 -3.66202 
111 1 -3.65871 -0.583873 -3.99997 
3447 2 -4.43179 -1.38012 -3.22896 
2748 2 -2.45583 -1.25036 -3.85393 
2766 2 -2.19636 -1.93526 -4.00071 
2395 1 -1.3434 -1.45984 -4.53034 
1971 1 -1.37803 -0.835461 -3.92892 
3585 2 -0.154576 -1.06331 -4.60282 
3500 2 -0.538833 -0.428929 -4.46329 
2057 1 -0.997666 -1.77679 -3.75105 
2434 1 1.35837 -1.5987 -4.58727 
1700 1 0.887684 -0.79329 -4.61902 
922 1 1.58617 -0.886708 -4.15904 
1969 1 0.617236 -1.04964 -3.76003 
2306 1 3.20461 -1.84838 -4.50502 
2013 1 2.63684 -1.03795 -4.1589 
76 1 3.26041 -0.884593 -4.84435 
3134 2 3.86922 -1.27605 -3.66646 
2914 2 3.65416 -0.505974 -3.48857 
844 1 4.705 -1.72611 -3.19098 
1648 1 4.7191 -0.823686 -4.38385 
2299 1 5.18817 -1.37662 -3.79758 
2054 1 -7.06652 -1.86744 -4.93561 
3116 2 6.11915 -1.37438 -4.51015 
1301 1 6.95261 -0.622688 -4.32149 
1720 1 6.92545 -1.49507 -3.48104 
52 1 -6.71431 -0.516008 -3.69733 
1627 1 -5.86126 0.295387 -3.4142 
3263 2 -6.33306 0.480193 -4.40393 
35 1 -6.92905 0.221018 -3.30607 
1514 1 -5.38936 -0.751824 -3.93013 
1343 1 -6.13324 -0.503484 -3.30892 
1835 1 -4.53996 -0.500916 -4.14041 
1316 1 -3.6958 -0.301601 -3.2228 
2423 1 -4.36921 0.342707 -3.88043 
2789 2 -2.4744 -0.406874 -3.66439 
3490 2 -2.36271 0.457511 -3.57536 
1531 1 -1.55626 0.0918385 -4.42748 
2241 1 -0.825825 -0.237547 -3.4209 
3555 2 -0.0633303 0.077964 -4.4328 
1706 1 0.574437 -0.291434 -3.56447 
1296 1 0.820206 0.67196 -4.68033 
2237 1 1.80404 -0.0610312 -3.88589 
446 1 0.92395 -0.0285286 -4.12872 
1337 1 2.6178 -0.183024 -4.18692 
483 1 3.90702 -0.408601 -4.53142 
455 1 4.52496 0.15945 -4.30835 
2902 2 5.79651 0.215678 -4.09195 
1548 1 4.78547 -0.363949 -3.70472 
2856 2 5.99952 -0.612529 -4.01061 
523 1 6.82302 -0.443624 -3.25225 
654 1 6.86551 0.169695 -3.8587 
3260 2 -6.33221 1.23065 -4.21361 
3033 2 -6.51149 2.03945 -4.09644 
385 1 -5.31039 0.232717 -4.09889 
1793 1 -5.49953 1.16147 -3.6414 
2311 1 -5.37162 2.06636 -3.77885 
500 1 -4.38482 2.02468 -3.5428 
493 1 -4.70165 1.22592 -4.02025 
2278 1 -3.68488 1.13144 -3.66088 
882 1 -3.50083 0.304344 -3.90639 
2601 1 -2.71785 1.5342 -4.48251 
2177 1 -3.04455 0.805561 -4.43223 
3588 2 -2.37743 1.2476 -3.35463 
857 1 -1.74703 1.07538 -4.34087 
1910 1 -1.19935 0.504903 -3.93665 
14 1 -0.516176 0.756816 -3.17664 
154 1 -1.32539 1.52094 -3.83078 
2950 2 -0.317169 0.812538 -4.22371 
3196 2 -0.394061 1.74468 -4.09173 
692 1 1.94882 0.661368 -3.60365 
3241 2 1.87534 1.74547 -4.6463 
2 1 1.18353 1.7476 -3.71247 
2328 1 1.13226 0.846272 -3.85302 
254 1 1.92976 1.372 -3.34951 
583 1 2.78714 0.588639 -3.90406 
1614 1 2.64148 1.43769 -3.87605 
296 1 4.04559 1.09915 -4.15499 
840 1 4.6006 0.813295 -3.37365 
1364 1 3.54544 1.79082 -4.10113 
234 1 4.59172 1.79488 -4.16085 
2819 2 5.58479 0.884525 -3.78431 
3209 2 5.64544 1.69259 -3.55067 
34 1 6.60779 0.868364 -4.6457 
2440 1 6.46118 1.70633 -4.35863 
817 1 6.94921 0.945658 -3.96712 
2751 2 -6.72174 2.8053 -4.16888 
3021 2 -6.57181 3.2875 -3.64289 
2061 1 -5.51293 2.57344 -4.44043 
412 1 -5.76829 2.70751 -3.1697 
2383 1 -4.88023 2.84774 -3.47557 
2529 1 -3.42708 1.91411 -4.14114 
697 1 -3.51484 2.833 -4.02847 
1483 1 -2.47374 2.70406 -4.15501 
2436 1 -1.95716 3.36002 -3.91258 
1002 1 -2.01354 1.93188 -4.34671 
3006 2 -0.692187 2.94359 -3.29712 
892 1 -1.65091 2.31572 -3.59652 
2860 2 -0.441978 2.46788 -3.79969 
301 1 0.394719 3.2085 -3.97157 
30 1 0.726577 2.40417 -3.96945 
3063 2 1.72106 2.53275 -4.42255 
1176 1 2.94375 2.5401 -3.95543 
441 1 2.1519 2.16082 -3.30377 
2084 1 4.04484 2.43468 -3.63937 
3369 2 5.40036 2.39881 -3.29761 
2637 1 4.85982 2.75479 -4.20235 
556 1 4.37363 3.5642 -3.90071 
2976 2 5.29911 3.30105 -3.24472 