ITEM: TIMESTEP
47200
ITEM: NUMBER OF ATOMS
3594
ITEM: BOX BOUNDS pp pp pp
-7.2041859686372902e+00 7.2041859686372902e+00
-7.2041859686372902e+00 7.2041859686372902e+00
-7.2041859686372902e+00 7.2041859686372902e+00
ITEM: ATOMS id type x y z 
1399 1 -6.34044 -6.14241 -6.09327 
239 1 -6.01555 6.73342 -6.60368 
1410 1 -7.09944 -6.30018 -6.5775 
335 1 -5.99008 -6.64859 -6.61061 
3477 2 -4.93971 -6.82689 -5.88322 
2018 1 -5.01149 -6.55931 7.19344 
2248 1 -3.92011 -6.09658 -6.13477 
2944 2 -2.50992 -7.1787 -6.91286 
3574 2 -2.88478 -6.53236 -6.5656 
1893 1 -1.5771 -7.14937 -6.46978 
2083 1 -1.10444 -6.34288 -6.12642 
1308 1 -1.85876 -5.79824 -6.19603 
2630 1 -1.74126 -6.40463 -6.83205 
533 1 0.136087 -6.35834 -6.46065 
1385 1 -0.362402 -6.97108 -6.08119 
1323 1 0.263783 6.84777 -6.70486 
2246 1 0.998726 -5.76407 -6.68215 
774 1 1.83808 -5.73723 -6.27698 
2492 1 1.22299 -7.00717 -6.90191 
1425 1 1.98121 -6.48632 -5.78116 
3442 2 3.23751 -6.00836 -6.24852 
748 1 1.95508 -6.66547 -6.72581 
3587 2 3.38796 -6.71876 -6.57251 
932 1 4.67201 -6.5069 -6.24038 
1970 1 4.41357 -7.06168 -6.86729 
589 1 4.08791 -6.00607 -6.91673 
3208 2 5.50974 -6.64553 -6.94133 
2787 2 5.63408 6.96952 7.19044 
13 1 6.19756 -6.15373 -6.22183 
2200 1 6.4881 -6.1695 7.12675 
572 1 -6.7986 -5.47718 -6.14139 
1654 1 -6.22023 -4.57824 -6.36981 
3029 2 -6.96662 -4.97662 7.1781 
2546 1 -5.63126 -6.0091 -6.93508 
1473 1 -6.11733 -5.30677 -6.70805 
937 1 -5.15955 -5.19813 -6.86144 
2702 1 -4.27106 -5.21347 -6.11123 
2301 1 -4.4563 -4.62396 -6.67257 
1020 1 -4.54482 -5.93365 -6.70624 
3061 2 -3.17641 -4.96986 -6.39097 
2981 2 -3.0142 -5.71039 -6.41794 
2397 1 -2.94247 -4.8111 6.83745 
1730 1 -2.02559 -5.61956 -7.00485 
3484 2 -0.920173 -5.34936 -7.15146 
842 1 -1.91116 -4.86113 -6.38905 
1122 1 0.0924026 -5.40467 -6.43489 
1587 1 1.37354 -5.03836 -6.63554 
2628 1 2.20939 -4.95739 -6.76467 
313 1 2.35357 -5.75828 -6.92901 
1836 1 2.33044 -4.17404 -7.18886 
2957 2 2.92719 -5.13187 -5.9064 
26 1 3.12029 -4.81599 -6.86035 
893 1 4.19836 -5.13177 -6.21307 
2256 1 4.12721 -5.07569 -7.1861 
2812 2 5.29684 -5.7851 -6.89165 
3212 2 5.20377 -4.94799 -6.54783 
1345 1 6.8442 -5.6585 -6.58351 
2727 1 7.13758 -4.7792 -6.17127 
639 1 6.3535 -5.19122 -7.13721 
1273 1 6.19929 -5.26818 -6.03543 
1918 1 6.2975 -4.55326 -6.46065 
2975 2 -7.05634 -4.27825 7.18178 
2015 1 -6.65167 -3.84526 -6.18679 
1483 1 -5.78905 -3.51064 -6.46378 
1794 1 -5.96639 -4.06425 -6.98136 
1640 1 -5.28213 -4.29892 -6.68507 
1835 1 -4.79965 -3.57348 -6.24859 
2516 1 -4.43257 -4.25637 -5.81332 
3041 2 -3.2466 -4.19151 -6.1539 
139 1 -3.99044 -3.89206 -6.89873 
2869 2 -3.42142 -3.36423 -5.9997 
1822 1 -2.293 -4.77258 -7.11605 
890 1 -2.25219 -3.97019 -6.40209 
2057 1 -3.07651 -3.96103 7.16816 
1629 1 -2.43133 -3.57805 -7.09006 
2808 2 -1.04934 -4.50135 -6.89573 
3332 2 -1.17296 -3.64948 -6.71455 
607 1 -0.452763 -3.86526 -5.63797 
1347 1 0.0031673 -3.67509 7.16141 
1313 1 -0.156281 -4.262 -6.31788 
1859 1 -0.173907 -3.25003 -6.56313 
1644 1 0.71874 -3.44696 -6.17383 
2520 1 0.910315 -4.37831 -6.26908 
1997 1 1.60895 -3.4606 -6.29027 
779 1 1.8219 -4.31443 -6.22551 
1648 1 3.24821 -3.89952 -6.70324 
2431 1 4.09451 -4.10135 -6.99953 
1527 1 3.68912 -3.46368 -6.08634 
2539 1 3.87931 -4.30273 -6.08327 
3266 2 5.08061 -4.24571 -6.43244 
2767 2 4.82791 -3.48956 -6.13697 
3126 2 7.00854 -3.65686 -7.0208 
1029 1 5.73338 -3.21549 7.19726 
1597 1 5.96456 -3.76365 -6.63321 
2360 1 -5.8541 -2.42796 -6.31394 
519 1 -6.45741 -2.94632 -7.0678 
90 1 -5.18099 -2.84088 -6.22403 
18 1 -4.50817 -2.18504 -6.50574 
2381 1 -4.33735 -3.06198 -6.84553 
911 1 -3.31871 -2.96575 -7.05316 
743 1 -2.60268 -2.31882 -5.89592 
1928 1 -2.96958 -1.81545 -6.57197 
520 1 -2.23021 -3.18822 -5.89259 
2070 1 -2.67758 -2.86633 -6.61444 
3234 2 -1.39846 -2.76909 -6.60438 
3105 2 -1.55075 -2.13487 -6.35292 
1489 1 -0.320059 -2.62232 -7.09892 
2511 1 -0.420902 -2.59596 -5.86203 
541 1 0.566528 -2.66143 -6.21317 
2804 2 0.949923 -2.30171 -7.1421 
3347 2 0.971395 -3.03518 7.16855 
2050 1 2.25932 -2.16352 -6.88848 
190 1 2.86511 -2.76354 -6.5332 
1897 1 2.50169 -3.43473 -6.79781 
675 1 3.7011 -2.74718 -6.64208 
3550 2 4.74121 -2.68621 -6.14797 
2415 1 5.92273 -2.84384 -6.34887 
3087 2 6.84502 -2.79645 -6.70979 
1051 1 6.2505 -2.67458 6.91373 
923 1 -6.4043 -1.36683 -6.44225 
936 1 -5.66718 -1.71855 -6.07705 
2892 2 -5.34718 -1.31965 -7.04514 
2320 1 -4.46374 -1.38663 -6.37676 
571 1 -3.67523 -2.26685 -6.79954 
2601 1 -3.53624 -1.21203 -6.49103 
323 1 -2.47641 -1.17128 -7.01945 
2699 1 -2.64196 -1.31835 -5.90662 
2013 1 -2.82713 -0.601639 -6.37798 
3200 2 -1.5022 -1.28087 -6.12546 
154 1 -0.323134 -1.91409 -6.5654 
1485 1 -0.49412 -1.00171 -6.50413 
1374 1 -0.484296 -1.67059 6.89311 
3151 2 0.6657 -1.60592 -6.93236 
1695 1 1.62614 -1.69787 -6.16049 
1418 1 2.0057 -1.40232 -6.86969 
309 1 2.92416 -1.59938 -6.22494 
1843 1 2.27711 -0.971127 -6.18296 
1981 1 3.76404 -1.7339 -6.75601 
1876 1 3.44152 -0.811134 -6.31489 
1824 1 4.19978 -0.956524 -6.9196 
453 1 5.37559 -2.40509 -7.04223 
2072 1 5.83776 -1.85282 -6.41206 
2122 1 6.10069 -0.772563 -7.1386 
303 1 5.41113 -1.07437 -6.51652 
2972 2 4.60139 -1.82167 -5.97748 
2231 1 5.6569 -0.869064 -5.74426 
2840 2 6.96761 -1.94957 -6.57515 
2797 2 6.76599 -1.02059 -6.33474 
2617 1 -6.6176 -0.506313 -6.35645 
1698 1 -6.68839 0.104682 -7.01269 
37 1 -7.19953 -0.371555 7.02256 
3097 2 -5.54096 0.15467 -6.77113 
3360 2 -5.53628 -0.58962 -6.82647 
1001 1 -4.73333 -0.381769 -6.11318 
408 1 -3.91438 0.692954 -6.38635 
2326 1 -3.83316 -0.289461 -6.3814 
547 1 -4.40445 -0.500335 -6.946 
1772 1 -3.20292 0.0689083 -6.05973 
2081 1 -2.83437 0.481653 -6.68315 
1255 1 -2.34573 -0.252658 -7.12899 
2390 1 -1.54327 -0.372593 -6.90602 
2796 2 -1.80142 -0.28081 -5.88746 
502 1 -0.671877 0.0980854 -6.41299 
343 1 -1.56003 0.515794 -6.85459 
3088 2 0.534838 -0.832555 -6.78097 
3311 2 0.643657 -0.0994049 -6.6353 
1661 1 -0.497395 0.935485 -7.199 
1708 1 1.512 -0.776143 -6.14405 
2712 1 1.58087 0.100823 -6.72204 
308 1 3.11709 -0.0741598 -5.90374 
2960 2 2.70387 0.258964 -7.17283 
867 1 2.21782 -0.10094 -6.07375 
2730 1 3.34326 0.741311 -6.38165 
1218 1 3.82342 -0.0527405 -6.83066 
2418 1 4.93377 -0.413247 -6.6303 
312 1 5.6117 0.0670664 -6.90599 
3135 2 6.57267 -0.219208 -6.32298 
3038 2 6.36004 0.50221 -6.30331 
3007 2 -6.09317 1.51882 -6.68379 
2037 1 -7.11048 1.61025 -6.38053 
2318 1 -4.69842 0.586277 -6.05794 
3127 2 -5.76454 0.839297 -6.75323 
305 1 -5.09406 1.27812 -5.92565 
1154 1 -4.84636 1.23459 -6.88101 
1232 1 -4.22727 1.47185 -6.2952 
1525 1 -2.21417 1.53848 -6.816 
2275 1 -2.94347 1.4162 -6.47333 
1057 1 -1.18344 1.858 -6.00965 
1971 1 -1.42778 1.43569 -6.78707 
994 1 -0.934972 0.988073 -6.02634 
2928 2 0.346567 0.650185 -6.54435 
3078 2 0.0993989 1.44538 -6.35402 
497 1 1.22268 1.46011 -6.10202 
855 1 1.09138 1.85351 -6.85811 
3459 2 2.63199 1.00559 -7.09522 
805 1 3.40839 1.76581 -6.47594 
795 1 4.07661 1.2396 -6.46286 
591 1 4.93966 1.63621 -6.18688 
199 1 4.54263 0.41329 -6.47679 
478 1 5.53916 1.44441 -6.97898 
2066 1 5.20386 0.787861 -6.56335 
817 1 7.19512 2.4165 -6.03067 
3060 2 6.19004 1.35991 -6.0654 
2386 1 6.71678 1.54933 7.02287 
3414 2 6.18739 2.12754 -5.97025 
718 1 -7.0772 1.01229 -7.16869 
3140 2 -5.95515 2.17526 -6.38527 
3465 2 -6.27975 2.82459 -6.48423 
1288 1 -4.96005 2.17296 -6.84521 
1691 1 -4.97712 3.13057 -6.34732 
565 1 -4.36916 2.47703 -5.92058 
3093 2 -4.01399 2.79745 -6.74107 
1265 1 -2.58708 2.13216 -7.15951 
2694 1 -2.45418 2.96236 -6.75033 
686 1 -2.93722 2.29663 -6.35316 
2042 1 -1.7675 2.37299 -6.65664 
287 1 -0.758827 2.55138 -6.76022 
1053 1 -1.37514 2.9572 -6.08488 
3444 2 -0.132907 2.23462 -6.16033 
2813 2 -0.269957 3.1642 -5.98914 
1773 1 0.249393 2.95046 -7.14248 
1848 1 0.962947 2.58115 -6.43843 
725 1 1.19713 3.46514 6.98521 
3393 2 2.24673 1.72608 -6.94427 
3417 2 1.98853 2.58543 -6.59881 
2261 1 2.77028 2.53476 -5.75537 
171 1 4.16403 2.2302 -6.30527 
1677 1 4.40236 3.08876 -5.90481 
2530 1 3.42805 2.8543 -6.08481 
1516 1 3.18747 2.82814 -6.89176 
1414 1 5.31568 2.29285 -6.65631 
2338 1 5.93379 3.18243 -6.9426 
2724 1 7.06679 3.01975 -6.69737 
2061 1 6.53941 2.38112 -6.93887 
1185 1 7.0603 3.26892 -5.8888 
625 1 -6.99383 2.26133 7.20193 
2736 2 -6.2528 3.41818 -6.23236 
2594 1 -6.12227 4.60116 -7.03244 
3238 2 -6.39566 4.15691 -6.08619 
964 1 -5.27658 4.02556 -6.50213 
2783 2 -4.01966 3.36967 -7.125 
3408 2 -4.2046 4.09839 -6.71391 
1512 1 -3.41222 3.90081 -5.80272 
341 1 -2.47846 4.09252 -6.22851 
966 1 -3.11155 4.37579 -6.75765 
2229 1 -3.03744 3.48556 -6.44097 
1098 1 -1.8157 3.50119 -6.52201 
673 1 -0.917039 3.2669 -7.00724 
2524 1 -1.57587 4.30177 -6.36561 
2839 2 -1.9045 4.13659 6.85424 
3378 2 -0.448176 3.97808 -6.01277 
2675 1 0.906226 4.21144 -7.15948 
2271 1 0.0117592 3.8013 -7.13175 
1932 1 0.743058 3.64046 -6.42687 
1639 1 0.728492 4.40096 -5.94783 
3466 2 1.85771 4.14568 -6.47495 
3478 2 1.94406 3.39503 -6.47063 
105 1 1.79709 4.15656 6.87755 
1978 1 3.03696 3.67067 -6.40114 
1068 1 2.9253 4.77959 -5.978 
3551 2 4.15177 4.03966 -7.03481 
2765 2 4.18274 3.34518 -7.01672 
2142 1 4.97531 3.21115 -6.49921 
1965 1 4.83103 4.13846 -6.22177 
339 1 5.47467 3.99643 -6.74163 
2597 1 6.43494 3.83719 -6.62431 
2327 1 7.18265 3.99383 -6.82425 
34 1 6.88682 4.11771 -5.91473 
1727 1 -6.6968 5.17711 -7.08904 
3045 2 -6.6184 4.96165 -5.87926 
896 1 -5.54632 5.19498 -6.97128 
754 1 -5.61414 4.90677 -6.24355 
3471 2 -4.52643 5.48655 -6.62807 
2440 1 -5.52667 5.76282 -5.92223 
3411 2 -4.46824 4.73451 -6.53212 
1481 1 -3.27795 5.27302 -6.70058 
1344 1 -2.65021 4.97795 -5.91039 
3454 2 -2.43867 5.61634 -7.04496 
1370 1 -1.72482 5.31935 -6.06166 
225 1 -1.04684 4.9746 -6.54863 
1663 1 0.142156 4.63633 -6.7569 
1767 1 0.637993 5.26038 -6.16128 
215 1 -0.176873 5.34779 -6.51733 
3138 2 1.67955 4.94092 -6.3713 
282 1 0.845321 5.07675 -7.05984 
693 1 2.96314 4.48237 -6.76094 
703 1 2.83578 5.52485 -6.50995 
3223 2 4.04518 4.7449 -6.9302 
3215 2 3.86138 5.44905 -6.60898 
1616 1 6.03564 4.79824 -6.34204 
1871 1 6.11625 5.58849 -6.30886 
865 1 5.29176 5.03012 -6.72081 
2701 1 6.92657 4.83712 -6.66495 
1341 1 6.9182 5.70705 -6.56974 
862 1 7.12749 5.51698 6.94887 
1117 1 -6.79248 7.03284 -6.63418 
317 1 -6.9086 6.21341 -6.93965 
3150 2 -4.85313 6.94966 -6.31468 
3463 2 -4.62699 6.22775 -6.3861 
2706 1 -6.043 5.83829 -6.85928 
2446 1 -3.56779 6.76671 -6.56437 
601 1 -3.58665 6.0768 -7.05303 
197 1 -2.86511 6.68888 -5.73345 
3268 2 -2.34513 6.4739 -7.01359 
1747 1 -1.04849 5.83892 -6.71144 
1984 1 -1.64062 6.2937 -6.22472 
1093 1 -0.868501 6.89712 -6.62421 
1643 1 -0.268802 6.25707 -6.59075 
1850 1 0.673133 5.93391 -6.80354 
2831 2 1.75742 5.57853 -6.07528 
2899 2 1.46148 6.29059 -6.14131 
255 1 2.35737 6.11173 -6.87081 
2627 1 1.65265 6.75376 -7.18471 
849 1 2.34769 6.85236 -6.22039 
2048 1 2.87715 6.11037 -5.74601 
2790 2 3.631 6.18175 -6.88733 
3569 2 3.45522 6.87448 -6.43237 
1681 1 5.13737 5.80056 -6.47384 
452 1 5.97275 6.50541 -6.20291 
924 1 5.16488 6.86265 -6.29684 
2678 1 4.63468 6.48332 -7.11798 
829 1 6.6959 6.59123 -6.65468 
760 1 6.56069 -6.96954 -6.74868 
1263 1 -6.05698 -6.92168 -5.83172 
2747 2 -7.19057 -6.96457 -5.50293 
695 1 -6.30307 -5.89668 -5.16901 
3520 2 -5.22191 -6.19156 -5.7552 
1291 1 -5.39176 -5.88553 -4.64642 
2533 1 -5.94241 -6.87645 -5.07654 
392 1 -3.70658 -7.09259 -6.00002 
1149 1 -4.05259 -6.7795 -5.29281 
472 1 -3.43535 -5.84157 -5.49499 
2002 1 -2.96335 -6.73741 -5.43129 
2439 1 -2.40689 -6.06382 -5.16156 
1979 1 -2.2455 -6.96352 -4.76458 
1435 1 -1.98753 -6.50622 -5.83065 
3322 2 -1.37221 -5.92924 -4.93894 
3594 2 -1.13656 -6.70111 -5.04835 
2626 1 -0.564217 -5.73642 -5.93988 
245 1 -0.091522 -6.40862 -5.2712 
1422 1 0.0880711 -6.13815 -4.53711 
3128 2 0.973376 -6.66408 -5.79024 
2491 1 1.9457 -6.43341 -4.91329 
2978 2 1.13488 6.94115 -5.84059 
1416 1 3.16348 -6.43196 -5.15652 
1896 1 3.91681 -6.5729 -5.50266 
2469 1 3.50774 -5.72049 -4.7909 
522 1 5.44089 -6.85969 -5.85077 
916 1 5.90285 -6.04308 -5.51109 
2825 2 4.91223 -6.22543 -4.75338 
1985 1 6.15162 -6.28042 -4.82617 
3487 2 6.9626 -6.31374 -5.50664 
610 1 6.11139 -7.09428 -5.94161 
2137 1 -6.51626 -5.05311 -5.36208 
2721 1 -6.61712 -4.32129 -5.54537 
3416 2 -5.30785 -5.45125 -5.85558 
3325 2 -5.50859 -4.78297 -5.64407 
642 1 -4.93835 -5.08771 -4.65242 
683 1 -5.96492 -5.1739 -4.68527 
959 1 -4.17359 -4.92337 -5.30943 
2674 1 -4.28029 -5.82755 -5.03692 
833 1 -3.31732 -4.97864 -5.16817 
2549 1 -2.44824 -5.21653 -5.47802 
2262 1 -2.14634 -4.332 -5.70892 
2176 1 -2.43961 -5.25328 -4.5202 
897 1 -1.4588 -5.17999 -5.83902 
3480 2 -1.35218 -5.05009 -4.77322 
2052 1 -1.17205 -4.32875 -5.71237 
786 1 -0.640877 -4.94982 -5.99075 
1050 1 -0.39323 -5.49139 -5.09897 
1931 1 -0.492774 -4.61831 -5.16293 
1442 1 1.71664 -5.05601 -5.72154 
2826 2 0.772869 -5.96539 -5.64255 
3068 2 0.589957 -5.20603 -5.47785 
1234 1 2.19617 -5.79192 -5.51078 
1575 1 2.65726 -5.6085 -4.94898 
984 1 2.05361 -4.6786 -4.99472 
1415 1 2.98074 -4.95859 -4.68994 
1160 1 3.61211 -4.41324 -4.95684 
1019 1 4.24764 -5.88775 -5.77773 
1211 1 3.95799 -5.1951 -5.35005 
98 1 5.11877 -5.93401 -5.75737 
1322 1 4.86705 -4.91262 -5.46374 
2659 1 6.06065 -5.44861 -4.55565 
451 1 5.7293 -5.22669 -5.29285 
2828 2 7.02152 -5.57117 -5.19018 
3010 2 6.8066 -4.79996 -5.05288 
2612 1 -6.61466 -4.25162 -4.53695 
2912 2 -5.51708 -4.05995 -5.58249 
1361 1 -4.70762 -4.18791 -4.84302 
88 1 -3.64729 -4.00499 -5.02193 
1140 1 -4.56075 -3.33146 -5.41571 
913 1 -2.70161 -4.37248 -5.07529 
484 1 -2.69055 -3.43409 -5.22477 
922 1 -1.57971 -3.60271 -5.43092 
2058 1 -0.856696 -3.74751 -4.79243 
2631 1 -1.01008 -3.05454 -5.55215 
2768 2 0.611319 -4.40966 -5.16878 
840 1 1.73515 -4.03152 -4.64646 
566 1 1.50644 -4.10531 -5.49394 
2933 2 2.75094 -4.3784 -5.76804 
3249 2 2.66416 -3.61869 -5.75022 
1945 1 3.66467 -3.51823 -4.92206 
1372 1 4.29689 -4.06902 -5.37457 
153 1 5.99266 -4.403 -5.68012 
1364 1 5.28447 -4.15278 -5.13649 
2306 1 5.40136 -3.35042 -5.08051 
346 1 6.02854 -3.53948 -5.86082 
3080 2 6.73055 -4.09262 -4.78969 
1373 1 6.88917 -4.02962 -5.96618 
148 1 -6.53369 -2.88749 -6.08504 
92 1 -6.82308 -3.46358 -5.21856 
1672 1 -7.05362 -2.64721 -5.16865 
2890 2 -5.88124 -2.52057 -5.16758 
2737 2 -5.76309 -3.34234 -5.08807 
2661 1 -4.56572 -2.38613 -4.71519 
1445 1 -4.83309 -2.47563 -5.6108 
2844 2 -3.77583 -2.66301 -5.79826 
1087 1 -3.93284 -3.1047 -4.82328 
2605 1 -3.72159 -2.19295 -4.44053 
523 1 -3.08906 -2.8719 -4.38595 
965 1 -2.74174 -2.55856 -5.17294 
667 1 -1.32203 -1.76255 -4.7469 
1112 1 -1.74595 -2.4924 -5.43324 
527 1 -0.827813 -2.79988 -4.70153 
3227 2 0.434997 -3.47756 -5.11941 
3430 2 0.302747 -2.70621 -5.03205 
2600 1 1.73872 -2.63636 -6.30308 
400 1 1.39856 -3.16675 -5.51534 
2298 1 1.14875 -2.30737 -5.67924 
3014 2 2.40136 -2.93233 -5.35845 
2830 2 2.43384 -2.19801 -5.48268 
847 1 3.72991 -3.00462 -5.46929 
873 1 3.18841 -2.65652 -4.5803 
2645 1 3.41311 -2.25255 -5.99935 
1841 1 4.55824 -3.19815 -5.04795 
1911 1 3.53866 -2.13618 -5.1331 
2101 1 5.56282 -2.58478 -5.29668 
499 1 4.63176 -2.28635 -4.9514 
2126 1 6.7588 -2.99 -5.70113 
2021 1 6.40612 -2.19732 -5.68574 
41 1 -6.64207 -2.0624 -5.89724 
2993 2 -6.03897 -1.09153 -4.85325 
2560 1 -5.88199 -0.860794 -5.833 
874 1 -4.96216 -1.67454 -5.66787 
2974 2 -5.92254 -1.87074 -4.96152 
3543 2 -3.7601 -1.84199 -5.46017 
3256 2 -3.75488 -1.08792 -5.39548 
1064 1 -2.12804 -1.61776 -5.1826 
159 1 -3.0692 -1.05206 -4.46245 
2139 1 -0.763083 -1.94777 -5.46008 
2465 1 -2.25155 -0.85495 -4.82392 
2609 1 -1.15508 -1.03978 -5.07323 
460 1 -0.400011 -1.03817 -5.65236 
3354 2 0.186282 -1.90087 -4.72096 
1562 1 0.552181 -0.741259 -5.45618 
2187 1 0.46099 -1.57399 -5.82308 
2673 1 1.26422 -1.25281 -5.50016 
2411 1 1.24536 -1.92164 -4.84184 
76 1 3.39761 -0.548877 -4.75315 
3356 2 2.19651 -1.3405 -5.1987 
3557 2 2.17218 -0.584399 -4.90471 
40 1 3.24282 -1.139 -5.52482 
296 1 4.45128 -1.53322 -4.60424 
2995 2 4.39482 -1.13732 -5.71674 
304 1 5.66219 -1.79926 -5.60516 
1326 1 7.1783 -1.73085 -5.16765 
802 1 -7.1889 -1.06493 -4.24936 
2311 1 6.33564 -1.26683 -5.34428 
1883 1 -6.90977 -1.00302 -5.4029 
1224 1 -6.15029 0.0637556 -5.69352 
1369 1 -6.97562 -0.111217 -5.3529 
1781 1 -5.0949 -0.931481 -5.52613 
477 1 -5.10596 -0.498535 -4.59416 
1353 1 -5.26863 0.0348203 -5.46164 
3144 2 -4.01564 -0.292584 -5.25886 
174 1 -2.22395 0.025784 -4.73702 
1635 1 -2.82226 -0.665714 -5.383 
1623 1 -2.93233 0.376565 -5.28418 
2939 2 -2.02467 0.452956 -5.82127 
605 1 -1.29032 -0.219868 -4.72296 
603 1 -1.22908 0.524454 -5.12327 
2589 1 -0.789384 -0.124643 -5.65873 
295 1 0.154983 0.104844 -5.54953 
2080 1 1.19871 -0.2271 -5.49877 
75 1 1.13039 -0.776533 -4.53113 
892 1 0.91079 0.0634726 -4.76538 
3449 2 2.05066 0.149961 -4.92172 
2150 1 3.14598 0.159729 -5.10722 
388 1 4.11352 -0.0448945 -4.38065 
3317 2 4.47521 -0.39688 -5.51849 
2848 2 4.21239 0.382263 -5.30843 
1362 1 5.45813 0.0433685 -5.85245 
504 1 5.24654 0.239345 -4.77114 
130 1 5.52728 -0.608503 -4.87558 
1340 1 6.20507 -0.0500094 -5.21929 
1548 1 6.83475 -0.619959 -5.01636 
556 1 6.6635 0.731862 -4.8221 
668 1 -6.43271 1.43834 -5.57722 
1446 1 -6.83454 0.590684 -6.39083 
50 1 -5.80086 0.810655 -5.73732 
561 1 -5.26454 0.744844 -4.94524 
2108 1 -3.38286 0.872585 -5.8185 
2861 2 -4.20967 0.5947 -5.12165 
3062 2 -4.38218 1.48215 -5.13268 
2241 1 -3.31572 1.49094 -5.28398 
330 1 -2.74014 1.04067 -4.73149 
3117 2 -2.29923 1.97438 -5.62299 
2846 2 -2.12334 1.17543 -5.66288 
1517 1 -1.57137 1.24396 -4.80427 
14 1 -0.886998 1.65564 -5.15317 
2647 1 -0.423463 0.806946 -5.34413 
84 1 0.426199 1.89787 -4.40692 
2713 1 0.00968579 1.43154 -5.26581 
324 1 0.83641 1.59427 -5.31449 
1998 1 1.34431 0.552375 -5.81172 
904 1 0.658392 0.703765 -5.28926 
941 1 2.97957 1.6195 -5.73363 
3383 2 1.89052 1.01627 -4.71363 
110 1 2.41521 0.580389 -6.06898 
371 1 2.06201 1.26863 -5.9826 
441 1 2.77237 1.91234 -4.85628 
1368 1 2.79339 0.863338 -5.32394 
3364 2 3.81832 1.16558 -5.36823 
3388 2 4.02072 1.83476 -5.37246 
2074 1 5.85438 0.680488 -5.02725 
1574 1 5.20777 1.66114 -5.21679 
2087 1 5.14083 0.797894 -5.61599 
194 1 5.67631 2.33074 -4.91281 
1472 1 -7.14137 0.818093 -5.44002 
2276 1 6.17919 1.52277 -4.95695 
1607 1 -5.69887 1.70127 -5.28837 
1238 1 -6.52886 2.26765 -5.45325 
1336 1 -5.23336 2.29265 -5.76998 
2576 1 -5.37043 3.10299 -5.62044 
443 1 -5.35504 1.75243 -4.56457 
2396 1 -5.76919 2.46104 -4.94223 
433 1 -3.54825 1.93465 -5.99722 
2466 1 -3.53459 3.08812 -5.87357 
2845 2 -4.53339 2.25966 -4.86876 
2077 1 -4.42571 3.48908 -5.80203 
803 1 -3.4362 2.50177 -5.17798 
28 1 -2.80922 2.0261 -4.70363 
2945 2 -2.42605 2.73032 -5.61685 
2977 2 -2.37364 3.45775 -5.36679 
757 1 -1.1998 2.5634 -5.32394 
823 1 -1.69179 2.09147 -4.75421 
177 1 -1.55794 3.10303 -4.62693 
1993 1 -0.216696 2.23876 -5.04869 
46 1 -0.576664 3.35387 -5.04953 
1505 1 0.428601 2.73785 -4.8793 
1249 1 0.81905 3.38964 -5.48956 
1924 1 0.8933 2.38325 -5.56922 
1056 1 2.0434 2.09354 -5.63096 
301 1 1.54769 2.94064 -5.56269 
2542 1 2.53075 2.77923 -4.88192 
3433 2 3.74924 2.6434 -5.19696 
23 1 5.04468 2.37931 -5.69636 
2147 1 4.82953 2.93015 -5.00483 
709 1 4.58625 3.76462 -5.33345 
1207 1 6.96579 1.76416 -5.27997 
3298 2 5.96936 3.10623 -5.64858 
723 1 6.56633 3.65853 -4.62164 
2297 1 -6.74542 3.05875 -5.27356 
2414 1 7.13445 3.88563 -5.16436 
3456 2 -4.52692 3.07073 -4.78201 
1910 1 -5.82771 3.85222 -5.40515 
59 1 -5.06623 4.33212 -5.6878 
912 1 -4.05839 4.15851 -5.26439 
1991 1 -3.52995 3.40972 -4.90329 
1733 1 -3.78777 3.76972 -4.19927 
2865 2 -2.71004 4.06454 -5.03912 
2401 1 -1.78843 4.60899 -5.36995 
175 1 -1.31194 3.67304 -5.401 
2208 1 -1.1956 4.20903 -4.60041 
1687 1 0.234793 3.79528 -4.93204 
1269 1 -0.0905935 4.2691 -4.4109 
1521 1 1.39475 4.1704 -5.42646 
2379 1 2.80061 3.92452 -5.5471 
899 1 2.19193 3.47558 -5.33645 
2711 1 3.75753 3.67556 -5.9499 
2814 2 3.41809 4.22579 -4.78828 
2894 2 3.40598 3.39085 -4.92979 
16 1 3.86725 4.46496 -5.88154 
2927 2 5.71541 4.47534 -5.49668 
2917 2 5.6871 3.76586 -5.38448 
2092 1 4.38615 4.53149 -5.32147 
83 1 6.87947 2.69056 -5.05718 
2707 1 6.62563 4.85577 -5.54947 
2715 1 -5.95772 5.61479 -5.00787 
1200 1 -6.94624 4.97769 -4.85708 
131 1 -5.82133 4.75536 -5.00281 
587 1 -4.90143 6.09664 -5.20302 
2473 1 -5.14299 5.26287 -5.43008 
2342 1 -3.80293 5.59644 -5.82916 
1229 1 -4.17956 4.96235 -5.42629 
1391 1 -3.4179 4.73077 -6.05912 
297 1 -4.05255 5.89776 -4.99059 
3458 2 -2.95667 4.91495 -4.86561 
2988 2 -2.9977 5.62688 -5.03016 
2635 1 -1.92631 6.28991 -5.18213 
1346 1 -3.15581 6.00066 -6.24227 
345 1 -1.89294 5.4036 -4.99876 
3207 2 -0.61924 5.34046 -5.3829 
3392 2 -0.415793 4.62 -5.55172 
582 1 0.757293 5.56811 -5.31369 
2669 1 0.566312 4.72938 -5.02407 
2429 1 1.40181 5.03802 -5.08813 
1878 1 2.17224 4.39772 -5.36438 
15 1 2.44843 5.2991 -5.34279 
2762 2 3.2493 5.07041 -4.68938 
3531 2 3.07121 5.88375 -4.41366 
696 1 3.47575 5.39302 -5.66342 
1113 1 4.2944 5.38295 -5.18433 
1311 1 4.55605 6.20646 -6.03859 
2086 1 4.4151 5.8518 -4.5828 
459 1 4.64771 5.09231 -6.02545 
1923 1 5.03792 4.92628 -4.53815 
3257 2 5.53518 5.2163 -5.27451 
2971 2 5.48803 6.01314 -5.31824 
806 1 6.66572 5.6344 -5.53013 
2317 1 6.7207 5.50771 -4.72126 
3147 2 -6.69809 5.78677 -5.81509 
3330 2 -6.98502 6.71695 -5.69498 
1184 1 -6.04867 6.54538 -4.83445 
942 1 -5.78281 6.66907 -5.77684 
29 1 -5.2525 6.9669 -5.06064 
2321 1 -4.40066 6.97492 -4.90631 
2033 1 -3.80228 6.59524 -5.54474 
2835 2 -3.30353 7.0872 -4.63575 
1881 1 -2.07867 7.00073 -5.80876 
3265 2 -2.88027 6.42345 -4.71756 
127 1 -1.79969 6.7902 -4.17328 
2603 1 -2.40253 5.87746 -5.86337 
3018 2 -0.875511 6.07331 -5.49335 
3455 2 -1.0427 6.8481 -5.37637 
1356 1 0.261617 6.12645 -5.8517 
1799 1 0.0752943 6.93086 -5.68548 
427 1 0.829072 6.65061 -4.75801 
1837 1 1.85622 7.0401 -4.86746 
1689 1 1.42036 5.95522 -4.7368 
1130 1 2.13028 6.1936 -5.31104 
248 1 3.51731 7.10748 -5.32606 
1882 1 3.90667 6.179 -5.42479 
811 1 2.48554 -7.1481 -5.40833 
798 1 4.35332 7.18728 -5.88143 
2483 1 3.92722 6.64942 -4.70699 
3290 2 4.80775 -7.05514 -4.8467 
2926 2 5.12673 6.72775 -5.03176 
213 1 -7.0004 5.9124 -4.69072 
1667 1 6.48836 6.45558 -5.52659 
2088 1 6.30811 6.5426 -4.69155 
440 1 6.14804 -7.15701 -5.10882 
655 1 -6.65354 -6.80515 -4.60834 
316 1 -6.61555 -5.89667 -4.4336 
947 1 -6.51892 -7.11448 -2.77303 
698 1 -4.66737 -6.7467 -4.51733 
3228 2 -5.78578 -6.70365 -3.84783 
2462 1 -4.47097 -6.45635 -3.55696 
3413 2 -3.369 -6.61383 -4.30502 
3562 2 -3.42098 -5.87793 -4.31514 
1406 1 -2.25327 -5.80837 -4.03781 
1665 1 -2.32839 -6.99308 -3.85403 
1144 1 -1.54461 -5.88481 -3.68299 
1327 1 -1.45415 -6.70663 -3.95031 
1585 1 -0.800482 -5.79289 -3.95759 
2453 1 -0.0147703 7.12262 -4.70241 
1089 1 -0.482203 -6.53659 -4.15928 
3056 2 0.363388 -6.60079 -3.53666 
1810 1 -0.72821 -6.53132 -3.25534 
2238 1 1.42073 -6.22086 -3.77136 
1289 1 0.925126 -6.86821 -4.78874 
2918 2 2.56919 -6.23589 -4.01678 
189 1 3.90748 -6.66995 -4.51362 
112 1 3.88071 -5.92976 -4.11751 
538 1 4.67951 -6.56798 -3.77231 
1000 1 5.36988 -6.02599 -3.34714 
72 1 5.90236 -6.16064 -3.92528 
2615 1 6.8156 -6.89001 -4.46445 
2571 1 -6.92196 -6.46548 -3.74905 
3375 2 -5.76566 -5.89627 -3.65305 
2896 2 -5.95699 -5.03639 -3.5469 
2388 1 -6.83177 -5.06532 -4.4394 
1664 1 -7.03013 -5.34155 -3.66333 
2323 1 -4.75738 -5.76239 -4.0103 
595 1 -4.90984 -4.84941 -3.86431 
3536 2 -3.79286 -5.11003 -4.09792 
228 1 -2.75929 -4.58786 -4.13375 
2038 1 -1.87307 -4.98157 -3.45452 
666 1 -2.72447 -5.23445 -3.44902 
1163 1 -1.02125 -4.87331 -3.40185 
1127 1 -0.564512 -5.09901 -4.17983 
1028 1 0.295525 -5.17317 -4.36529 
2623 1 1.61876 -5.65178 -4.95897 
1611 1 1.3961 -4.99165 -4.63331 
1538 1 0.997153 -6.03817 -4.44285 
2105 1 1.05043 -5.30724 -3.86559 
3379 2 2.24076 -5.52038 -3.99682 
3230 2 2.12168 -4.76671 -3.75942 
2145 1 3.38149 -5.24526 -4.04884 
3244 2 4.5037 -4.70617 -4.34171 
834 1 4.32916 -5.95145 -3.36024 
2722 1 4.04939 -4.84416 -3.40005 
3340 2 4.76436 -5.46065 -4.6149 
997 1 5.56614 -5.19033 -3.78846 
1994 1 5.65773 -4.54292 -4.52106 
2521 1 7.11637 -4.47106 -3.8277 
1013 1 6.94745 -5.93494 -4.10094 
2507 1 6.58956 -5.09524 -3.95748 
1354 1 -6.79616 -3.5489 -3.94694 
3286 2 -6.16293 -4.1766 -3.35028 
1542 1 -5.686 -4.44873 -4.53123 
2375 1 -5.99497 -3.30277 -4.13107 
1251 1 -5.27376 -3.89682 -4.15339 
3376 2 -4.00337 -4.23483 -3.98914 
3083 2 -3.93856 -3.4699 -3.67329 
977 1 -3.02026 -3.67625 -4.0674 
1299 1 -1.89603 -4.06908 -3.22891 
3285 2 -1.69541 -4.43102 -4.39643 
3198 2 -1.88046 -3.6564 -4.50566 
1846 1 -0.900917 -4.15524 -3.86949 
1195 1 -0.797696 -3.13709 -3.90221 
1491 1 -0.132858 -4.23041 -4.22919 
2540 1 0.0742181 -3.24267 -3.99997 
247 1 0.708036 -4.44953 -4.03682 
692 1 1.06328 -3.62666 -4.31297 
850 1 2.70319 -4.13762 -4.62018 
1215 1 3.07482 -3.49731 -4.19379 
3320 2 2.02826 -3.29488 -3.36662 
3015 2 1.83539 -4.17058 -3.43293 
2857 2 4.27304 -3.84086 -4.23686 
27 1 3.18884 -4.37186 -3.9385 
1595 1 5.38569 -3.57603 -4.26645 
1428 1 5.21184 -4.4558 -3.66626 
2670 1 6.1648 -4.26324 -3.84149 
168 1 5.97973 -3.27866 -3.64651 
1444 1 -6.84895 -2.84225 -4.37845 
2351 1 -6.10644 -2.4416 -3.93245 
56 1 -5.34155 -2.8157 -3.91179 
1182 1 -4.91075 -3.13462 -4.51425 
3229 2 -4.06287 -2.6882 -3.42778 
3447 2 -4.42632 -1.96326 -3.40054 
2044 1 -2.34718 -3.27052 -3.39538 
1285 1 -2.94236 -2.612 -3.4912 
2302 1 -2.86619 -1.72974 -4.82665 
858 1 -0.798492 -2.07654 -4.04362 
2916 2 -1.89061 -2.93468 -4.36002 
358 1 -1.2874 -2.62157 -3.40506 
2400 1 -0.0171778 -2.45296 -3.71975 
1055 1 0.383708 -1.7443 -3.25807 
2263 1 0.83316 -2.47507 -3.9857 
749 1 1.38287 -2.88666 -4.60024 
1830 1 2.81689 -2.31501 -3.83271 
2558 1 2.24359 -3.28796 -4.44054 
1653 1 3.11489 -3.24368 -3.37398 
656 1 2.02796 -2.25082 -4.21644 
3353 2 4.31675 -3.03659 -4.02835 
3134 2 3.90645 -2.41167 -3.81901 
2211 1 5.21046 -2.32647 -4.40043 
2646 1 5.34057 -2.58299 -3.60964 
960 1 5.06831 -1.66906 -3.8126 
3173 2 6.36658 -3.32997 -4.66764 
2858 2 6.35232 -2.46339 -4.49889 
1851 1 6.74953 -3.63387 -3.56403 
1294 1 7.05236 -2.87727 -3.39748 
721 1 6.16168 -2.46093 -3.26449 
1316 1 -5.71331 -1.63316 -3.55771 
2132 1 -6.89604 -1.94161 -4.18985 
2657 1 6.97137 -1.89177 -3.53987 
1568 1 -5.92619 -0.574012 -3.46716 
1791 1 -6.46557 -1.22366 -3.64667 
318 1 -5.17623 -1.93005 -4.17964 
1151 1 -4.79358 -1.29397 -4.72934 
2436 1 -5.31782 -0.995594 -3.96101 
2480 1 -4.1577 -1.32299 -4.2611 
1787 1 -3.478 -0.708617 -3.59346 
2766 2 -2.08386 -2.16236 -4.09621 
1790 1 -3.21271 -1.79025 -3.80095 
2748 2 -2.18351 -1.43749 -3.7268 
1441 1 -1.05653 -0.948247 -4.07468 
1266 1 -1.08823 -1.54813 -3.21439 
3585 2 -0.104191 -1.14012 -4.5982 
1065 1 -0.261358 -1.33228 -3.43279 
1239 1 1.17076 -1.7067 -3.99695 
167 1 1.93914 -1.41573 -4.10168 
2020 1 0.787413 -1.03547 -3.71425 
1275 1 3.64605 -1.35863 -4.80322 
2460 1 2.67716 -0.712631 -3.13118 
1300 1 2.93566 -1.64227 -4.37445 
85 1 5.22077 -1.423 -4.72022 
2914 2 3.97944 -1.64103 -3.63425 
3483 2 3.86109 -0.873726 -3.48984 
1226 1 5.64316 -1.86503 -3.26474 
734 1 4.88786 -1.25543 -3.00394 
3116 2 6.26524 -1.68 -4.40117 
2856 2 6.06302 -1.08071 -3.97003 
1560 1 6.96212 -0.774192 -3.34576 
3267 2 -6.15867 -0.364012 -4.60028 
2028 1 -6.80299 0.0745294 -3.50812 
1953 1 -4.87688 0.293893 -4.1884 
697 1 -5.57583 0.161396 -3.84951 
1671 1 -3.27407 -0.201935 -4.35551 
2363 1 -4.32076 -0.42241 -4.14662 
1809 1 -3.76885 0.0852985 -3.3976 
2448 1 -4.12547 0.487903 -3.94274 
2789 2 -2.30232 -0.608186 -3.692 
3490 2 -2.61432 0.217814 -3.67556 
1777 1 -1.75115 0.686426 -4.21579 
2228 1 -1.39853 -0.0900708 -3.92091 
883 1 -1.55979 0.473596 -3.09221 
3500 2 -0.107259 -0.27633 -4.5628 
3555 2 -0.365275 0.509865 -4.23384 
1432 1 0.6952 -0.176161 -3.74475 
876 1 1.74388 -0.616598 -3.89223 
1176 1 2.2883 0.127085 -3.78648 
2407 1 2.84779 -0.609389 -4.00199 
2084 1 3.07491 0.401193 -4.26939 
2575 1 2.50936 0.831991 -3.47645 
2135 1 3.98789 0.815906 -4.21949 
665 1 4.64395 -0.764029 -4.50492 
3305 2 3.74677 -0.0210368 -3.34783 
2201 1 4.84217 0.155096 -3.95773 
2902 2 6.14729 -0.281806 -4.07369 
410 1 4.99935 -0.640572 -3.66503 
1927 1 6.99606 0.872318 -3.96603 
2642 1 7.14277 0.135839 -4.2074 
2819 2 5.81624 0.440831 -3.97771 
49 1 6.72444 0.299661 -3.18625 
3186 2 -6.23013 0.456698 -4.52018 
3263 2 -6.45708 1.1906 -4.46936 
1880 1 -6.91555 1.04493 -3.28231 
750 1 -6.56601 1.8537 -3.05692 
1169 1 -5.81847 1.61491 -3.4481 
1725 1 -5.20016 1.11663 -3.97633 
1060 1 -5.3019 2.22553 -3.8479 
2508 1 -3.4943 1.65157 -4.29206 
594 1 -3.45805 0.739887 -4.34161 
731 1 -4.45046 1.42181 -3.99907 
521 1 -3.85571 1.36218 -3.39948 
3588 2 -2.79935 0.96401 -3.43313 
286 1 -2.09425 1.52355 -4.15317 
3120 2 -2.84819 1.81975 -3.52757 
1894 1 -1.63858 1.26312 -3.43746 
2950 2 -0.645237 1.26037 -4.16992 
3443 2 1.52859 1.64364 -4.64751 
1763 1 0.739178 1.00328 -4.37391 
414 1 1.51731 0.399063 -3.91022 
2650 1 1.55898 1.23711 -3.41626 
1375 1 0.759506 1.56583 -3.70552 
2186 1 0.567969 0.813489 -3.49323 
1788 1 3.15685 1.26057 -4.42363 
1524 1 2.41135 1.66259 -3.73649 
1325 1 4.59185 0.940552 -3.58686 
377 1 4.28721 1.56839 -4.22041 
82 1 4.91743 1.06197 -4.6514 
3209 2 5.5801 1.34977 -3.7955 
3369 2 5.50175 2.15264 -3.79574 
2584 1 6.70255 1.68071 -4.24671 
3260 2 -6.71877 1.96002 -4.2128 
3033 2 -6.75933 2.86078 -4.09171 
1955 1 -6.01139 3.1813 -3.17879 
1148 1 -4.77985 2.88592 -3.68686 
554 1 -5.69999 2.95706 -4.1574 
1913 1 -5.95142 2.37923 -3.34029 
2551 1 -4.27884 2.22526 -3.6189 
2395 1 -3.37172 2.57172 -4.29225 
2490 1 -2.35576 2.58514 -4.36921 
3372 2 -2.87458 2.60486 -3.11986 
1367 1 -1.7283 2.32015 -3.7423 
2860 2 -0.685325 2.84015 -4.13278 
772 1 0.494204 2.5537 -3.90547 
3196 2 -0.722298 2.0231 -4.04417 
1486 1 0.341394 3.4271 -4.13177 
3241 2 1.46813 2.43862 -4.31476 
3063 2 1.44901 3.2554 -4.35877 
2313 1 1.19527 2.17298 -3.37657 
2286 1 1.15006 3.26229 -3.16254 
1466 1 1.98881 2.52823 -3.3562 
2592 1 2.63421 2.55607 -4.07527 
1532 1 2.08711 3.3452 -3.30533 
614 1 3.54662 2.0532 -4.26447 
891 1 4.48567 1.96248 -3.33076 
376 1 4.43388 3.39339 -4.29738 