ITEM: TIMESTEP
13100
ITEM: NUMBER OF ATOMS
3594
ITEM: BOX BOUNDS pp pp pp
-7.1987540158417724e+00 7.1987540158417724e+00
-7.1987540158417724e+00 7.1987540158417724e+00
-7.1987540158417724e+00 7.1987540158417724e+00
ITEM: ATOMS id type x y z 
1616 1 -6.88038 -6.65708 -6.30707 
1282 1 -6.13301 -5.97855 -6.2848 
601 1 -4.99863 -6.46311 -7.01388 
3520 2 -4.98409 -6.56879 -5.96011 
2396 1 -5.8741 -6.90493 -6.49481 
2058 1 -3.34315 -6.71362 -7.15824 
977 1 -3.97977 -6.55628 -6.18717 
1246 1 -4.04713 -6.28911 -6.87049 
3454 2 -2.74316 -6.93228 -6.40111 
3268 2 -2.80581 -6.14897 -6.41165 
448 1 -0.882307 -6.4926 -5.98641 
26 1 -1.69268 -6.30299 -6.40802 
2627 1 -1.82301 -6.23584 -5.65086 
1088 1 0.688384 -7.12486 -6.49593 
1107 1 0.149301 -6.27372 -6.11702 
3537 2 -0.510694 -6.55612 -7.07649 
1905 1 0.809388 -5.80883 -6.48523 
245 1 1.43646 -6.55928 -6.53005 
725 1 2.55734 -6.62467 -6.86757 
2957 2 3.4033 -5.84541 -6.11399 
1634 1 2.1634 -6.0142 -6.44689 
2415 1 1.90817 7.07571 -6.61934 
589 1 4.526 -6.2569 -6.471 
3442 2 3.47741 -6.6395 -6.07302 
1471 1 3.62149 -6.26252 7.18955 
3208 2 5.54224 -6.61993 -6.78113 
2812 2 5.37079 -5.86068 -6.69954 
112 1 6.50869 -6.89316 -5.92494 
1258 1 6.61736 -6.54518 -7.03071 
1954 1 6.91479 -6.02325 -6.16247 
558 1 -6.77678 -5.34831 -6.04518 
639 1 -7.21121 -4.62294 -5.93118 
3495 2 -7.10003 -4.78021 -7.14899 
1437 1 -5.97812 -5.11532 -6.44808 
2023 1 -5.54617 -5.85522 -7.00814 
1918 1 -4.72882 -5.51866 -6.69254 
923 1 -3.96276 -5.00041 -6.97836 
2612 1 -3.99003 -5.6339 -6.17364 
2122 1 -3.53055 -5.73355 -7.2145 
2944 2 -2.94963 -5.42737 -6.10596 
2238 1 -1.85593 -5.13253 -6.52362 
3019 2 -0.932434 -4.97948 -6.84471 
1966 1 0.438511 -5.0768 -6.85363 
527 1 -0.0288352 -5.36509 -6.26043 
3368 2 -0.735043 -5.75409 -6.96756 
40 1 1.61528 -5.45273 -6.3693 
579 1 1.07819 -4.69153 -6.25587 
2590 1 2.25854 -5.07536 -6.75027 
1215 1 3.27457 -5.02197 -7.15501 
2623 1 2.65927 -5.65893 -7.08008 
628 1 4.39504 -5.29 -6.02725 
1695 1 3.85885 -4.48964 -6.99502 
1100 1 4.08683 -5.55074 -6.84056 
3212 2 5.23748 -5.03027 -6.66877 
2479 1 6.48578 -5.55664 -6.72404 
3029 2 -7.10191 -3.91394 -6.90734 
2045 1 -6.31598 -4.42645 -6.20577 
2015 1 -5.65549 -4.06504 -6.69767 
1671 1 -5.18064 -4.71073 -6.67576 
2699 1 -4.98114 -3.6503 -6.57582 
1800 1 -4.35719 -4.50299 -6.21909 
2981 2 -3.2205 -3.82477 -5.67738 
1361 1 -3.98544 -3.98824 -6.88951 
386 1 -2.30265 -4.21379 -6.98996 
520 1 -2.047 -4.25785 -6.23645 
1370 1 -2.35597 -3.46672 -6.47231 
3484 2 -1.03932 -4.16042 -6.67109 
2808 2 -0.940191 -3.38682 -6.2891 
502 1 0.201639 -4.23348 -6.46758 
2368 1 0.0367224 -3.50654 -6.94147 
2589 1 0.899318 -3.78151 -6.17808 
2379 1 1.79166 -4.45973 -6.06509 
1425 1 2.05667 -3.46014 -6.37318 
3158 2 1.30001 -3.66048 7.17508 
1168 1 3.07908 -4.17635 -6.88444 
2599 1 2.32609 -4.16827 -6.75894 
1738 1 2.93532 -3.20363 -6.72346 
2631 1 4.18235 -3.79997 -7.19201 
2407 1 3.61995 -3.76412 -6.35266 
3266 2 5.10004 -4.28594 -6.48838 
2767 2 4.88886 -3.52183 -6.22165 
802 1 6.4188 -4.77623 -6.58952 
1788 1 6.17061 -3.76769 -6.6867 
1320 1 6.38074 -4.32688 -5.76079 
346 1 -6.59923 -3.2025 -5.7064 
304 1 -6.41712 -2.29212 -6.19157 
472 1 -5.92599 -3.15434 -6.35533 
2132 1 -5.58862 -2.22824 -5.93813 
83 1 -5.01822 -2.88167 -6.07559 
1392 1 -4.26054 -3.09079 -6.6082 
1315 1 -4.36546 -2.20561 -6.39659 
1445 1 -3.63255 -2.38935 -6.80262 
2114 1 -3.01921 -3.24391 -6.79682 
2289 1 -2.6537 -2.47356 -6.67443 
2706 1 -2.23196 -2.95284 -5.7944 
3332 2 -1.30186 -2.68711 -6.32542 
2480 1 -0.156008 -2.4363 -6.42861 
2187 1 -0.563119 -2.77378 -7.16359 
3503 2 0.955544 -3.04745 -6.93078 
3347 2 0.904358 -2.31036 -6.8156 
799 1 1.62264 -1.88708 -5.92652 
925 1 3.06334 -2.53551 -6.18523 
1635 1 2.01897 -2.52498 -6.36052 
2183 1 3.81845 -2.93304 -6.64201 
2500 1 3.80791 -1.9019 -6.59393 
2617 1 4.30775 -2.25487 7.03724 
3550 2 4.65254 -2.72056 -5.90088 
2254 1 5.78106 -2.78999 -6.79724 
1698 1 5.22265 -2.15328 -6.83309 
2972 2 4.80903 -2.01065 -5.80266 
2975 2 -7.15775 -3.17614 -6.62118 
3126 2 7.03487 -2.41632 -6.6213 
734 1 6.02193 -2.56969 -6.12594 
194 1 -5.9357 -1.26783 -5.96486 
1340 1 -6.50159 -1.47381 -6.67939 
2578 1 -4.54952 -1.36658 -6.24956 
2892 2 -5.4746 -2.30187 -7.0945 
3360 2 -5.27741 -1.51528 -6.99412 
2677 1 -3.76565 -0.988768 -6.48808 
1001 1 -3.88966 -1.66354 -6.99006 
911 1 -3.12848 -1.63995 -6.53277 
395 1 -2.76358 -0.947585 -6.39344 
433 1 -2.12658 -1.55474 -6.90373 
3234 2 -1.19325 -1.82404 -6.25293 
3105 2 -1.5146 -1.12399 -6.04014 
1745 1 -1.10728 -0.674486 -7.13434 
174 1 -1.54248 -1.33052 7.03933 
3151 2 0.671273 -0.740977 -6.73178 
1106 1 -0.434778 -1.29386 -6.63438 
2804 2 0.684658 -1.53093 -6.61208 
591 1 1.78328 -1.63763 -7.03891 
1938 1 1.89491 -0.516894 -6.98983 
2390 1 2.56327 -1.62084 -6.19949 
1587 1 1.77993 -1.22659 -6.34959 
1834 1 3.22657 -1.07939 -6.01536 
3406 2 2.92307 -1.1133 7.03499 
2535 1 4.00787 -1.07923 -6.75396 
483 1 4.73466 -1.44623 -6.8481 
377 1 5.72567 -1.73038 -6.15341 
1414 1 5.31352 -0.868183 -6.49988 
2530 1 5.87009 -1.36063 -7.00818 
3087 2 6.86081 -1.68931 -6.48119 
2840 2 6.72816 -0.787306 -6.37506 
806 1 -6.7358 0.545655 -6.26489 
1369 1 -6.46222 -0.566705 -6.31167 
122 1 -6.76891 0.0759624 -7.13548 
3097 2 -5.47219 -0.699387 -6.79076 
3127 2 -5.51863 0.0765145 -6.65153 
499 1 -4.78208 0.334193 -5.78644 
979 1 -4.56034 0.195177 -6.96485 
2641 1 -4.75016 -0.670224 -5.81904 
2300 1 -4.12921 -0.047665 -6.22028 
2229 1 -4.33409 -0.638154 -7.18227 
1457 1 -2.98044 -0.122385 -6.4572 
2320 1 -2.43364 0.433963 -7.02351 
1815 1 -1.99328 -0.484721 -6.9632 
1993 1 -0.826196 -0.00911103 -6.74286 
743 1 -1.57767 0.380367 -6.84312 
3088 2 0.434526 -0.00241582 -6.46187 
902 1 -0.289151 0.364245 7.18947 
2558 1 1.66714 -0.379722 -6.16071 
1777 1 1.58452 0.513376 -6.39735 
886 1 2.48701 -0.636011 -6.12766 
2960 2 2.55859 0.702966 -6.92508 
3195 2 2.87839 -0.195676 7.22083 
42 1 3.59146 -0.527385 -6.41721 
2086 1 4.51074 -0.326968 -6.74467 
850 1 3.81501 0.342657 -6.54067 
2137 1 5.85252 -0.242907 -6.94226 
234 1 5.26537 0.141108 -6.29902 
2797 2 6.60665 -0.0220521 -6.11516 
3135 2 6.23441 0.620039 -5.92628 
3140 2 -5.92813 1.70794 -6.63759 
2151 1 -7.12878 1.29128 -6.57216 
339 1 -6.83418 1.77268 7.09617 
3007 2 -5.85282 0.916745 -6.67447 
2180 1 -4.49838 0.874747 -6.33005 
2560 1 -4.44491 1.82697 -5.93488 
1670 1 -4.83852 1.23854 -7.01376 
580 1 -2.83548 0.937525 -6.40372 
2490 1 -3.61264 1.6299 -5.97556 
1965 1 -2.76764 1.83037 -6.51399 
337 1 -2.29989 1.15417 7.18834 
1116 1 -1.60973 1.23594 -6.68307 
28 1 -0.895722 0.719172 -6.12862 
561 1 -1.00042 1.81201 -6.61662 
1265 1 -0.405437 1.18841 -7.01293 
3311 2 0.355044 0.813371 -6.29334 
2928 2 0.169362 1.65323 -6.24376 
1368 1 1.37442 1.10918 7.13754 
221 1 1.56303 1.49653 -6.35857 
3459 2 2.57798 1.45048 -6.64576 
530 1 3.19052 1.73964 -5.86452 
2380 1 3.1408 0.712651 -5.93599 
1176 1 3.78826 1.34713 -6.46721 
2276 1 3.55495 1.17205 -7.11361 
1398 1 4.82382 0.790678 -6.35875 
263 1 5.64159 0.788954 -6.78161 
2445 1 5.06169 1.51404 -6.0486 
2072 1 6.69758 1.58808 -7.14687 
3038 2 6.23867 1.40708 -6.01721 
1684 1 6.6933 0.732196 -6.96507 
3465 2 -6.00505 2.57691 -6.40447 
2685 1 -4.93697 2.86872 -6.67285 
402 1 -5.89374 3.05234 7.03876 
1027 1 -4.79774 1.94885 -6.69893 
3093 2 -3.81905 2.04517 7.14014 
2783 2 -3.86426 2.83978 -7.0139 
1933 1 -2.19125 2.74337 -6.45807 
1833 1 -3.17298 2.56854 -6.14466 
1353 1 -0.824071 2.54893 -7.02364 
2037 1 -1.90131 2.01228 -6.81186 
1932 1 -1.15188 3.08754 -6.51813 
2208 1 -1.31505 2.38838 -5.91318 
3078 2 0.0652004 2.33675 -6.12397 
673 1 1.17607 2.12008 -6.83043 
2522 1 0.792218 3.05918 -6.30383 
171 1 1.33902 2.31032 -6.015 
3393 2 2.58475 2.23594 -6.7857 
3417 2 2.16095 2.79357 -6.71514 
1997 1 3.05954 2.55123 -5.81673 
1286 1 3.18755 2.97277 -7.20299 
2231 1 3.57035 2.44296 -6.56092 
50 1 4.47879 2.18326 -6.22058 
268 1 3.78232 3.2302 -6.17309 
3215 2 4.34467 3.1702 7.05695 
2066 1 5.21489 2.29779 -6.63411 
2711 1 4.60158 3.12 -6.24869 
2305 1 6.87286 2.48471 -6.86053 
1883 1 6.09618 2.47151 -7.00673 
131 1 7.05452 3.12081 -5.86188 
141 1 -7.20166 3.30358 -6.75938 
2736 2 -6.25811 3.27608 -6.1858 
1631 1 -5.97384 3.98465 -6.87221 
3238 2 -6.41268 4.10993 -5.9661 
718 1 -5.20316 3.57075 -6.43977 
3408 2 -3.96896 3.56793 -6.75541 
3411 2 -4.35456 4.2559 -6.75497 
343 1 -3.10977 4.25862 -6.5005 
1894 1 -2.97615 3.41431 -7.20591 
3098 2 -2.06574 4.31801 7.19119 
1102 1 -2.27878 4.33922 -5.89009 
1499 1 -2.52613 3.52749 -6.30098 
1623 1 -1.49124 4.15094 -6.2528 
2508 1 -0.71187 3.70482 -6.98224 
2401 1 -0.919426 4.4847 -7.03205 
1817 1 0.113834 3.55649 -6.77138 
3444 2 -0.274829 3.03685 -5.8861 
3466 2 1.70772 4.2588 -6.23487 
1016 1 0.820225 4.1593 -6.83016 
2429 1 0.599019 3.79925 -5.88463 
3478 2 1.8405 3.50653 -6.35002 
785 1 2.87692 4.27077 -6.87758 
1113 1 3.03463 3.58697 -6.62092 
3551 2 4.1202 3.95488 -7.03213 
1066 1 3.71718 4.16042 -5.93674 
908 1 4.82286 3.93744 -6.16015 
889 1 5.26561 3.10637 -6.88215 
2377 1 5.34798 3.92196 -6.66992 
1927 1 6.28376 3.43029 -6.68684 
404 1 6.09402 4.42972 -6.27147 
2546 1 7.0735 4.16294 -6.64177 
1413 1 -6.47994 4.66796 -7.03377 
1879 1 -6.64132 5.53479 -6.80081 
573 1 -5.26427 4.62261 7.05571 
1594 1 -5.71302 4.91445 -6.55991 
1697 1 -5.19537 5.62333 -7.08097 
3463 2 -4.47753 5.68739 -6.2028 
1318 1 -5.77359 5.7103 -6.38173 
822 1 -5.43008 5.0966 -5.63588 
3471 2 -4.39583 4.98981 -6.41596 
2576 1 -3.22444 5.11376 -6.62456 
989 1 -2.83302 4.9904 -5.91334 
3306 2 -2.24169 4.98278 -7.03493 
2839 2 -2.34375 5.91722 -6.83906 
233 1 -3.25128 4.75846 6.92982 
1253 1 -1.3647 5.0597 -6.17815 
586 1 0.638613 4.65918 -5.95705 
1230 1 -0.0349988 4.51391 -6.74895 
849 1 -0.650814 5.22728 -6.6339 
1685 1 0.68023 5.14783 -7.01338 
3138 2 1.588 5.07802 -6.14839 
2831 2 1.76665 5.75258 -5.88839 
1505 1 1.67985 5.42798 -7.10202 
486 1 2.55247 5.16806 -6.7548 
215 1 2.44317 5.94458 -6.9728 
686 1 2.7693 5.85562 -5.93527 
3223 2 3.94895 4.77986 -6.84106 
2790 2 3.69773 5.5478 -6.66138 
825 1 2.97505 4.90848 -6.04208 
1247 1 5.43818 4.89267 -6.41244 
795 1 4.86355 5.66236 -7.03724 
2594 1 5.75349 5.75447 -6.0255 
2028 1 4.68633 5.37627 -5.96685 
115 1 6.95679 5.1003 -6.59158 
462 1 6.42208 5.41891 -6.0012 
1148 1 -6.01169 7.10711 -5.76528 
66 1 -6.65385 6.67318 -6.67796 
2662 1 -5.74763 6.58264 -6.62461 
3477 2 -4.86077 7.07586 -5.92491 
3150 2 -4.71049 6.26854 -5.97907 
2437 1 -5.14319 7.11163 -7.06742 
1235 1 -3.70162 6.94146 -6.24462 
1030 1 -3.40569 5.78998 -5.79299 
1654 1 -4.22537 7.20104 -7.01112 
1140 1 -3.44853 5.98384 -6.68854 
2832 2 -2.39505 6.78933 -6.65797 
1652 1 -1.33483 -7.16947 -6.69508 
1744 1 -1.40564 6.01522 -5.99474 
345 1 -1.29718 6.38005 -6.88761 
1702 1 -0.725363 6.92733 -6.17751 
658 1 -1.60474 7.24068 -5.91771 
2630 1 -0.51496 5.99767 -6.23961 
798 1 0.221375 6.37838 -6.31422 
3259 2 -0.191396 -7.16032 7.17416 
1261 1 1.46656 6.24379 -7.06722 
1333 1 1.13172 7.15066 -7.05147 
1567 1 0.647908 6.11188 -6.9619 
1689 1 2.43619 6.64998 -6.19893 
3569 2 3.6695 6.12098 -6.10922 
3587 2 3.55557 6.96025 -6.2612 
1724 1 4.57587 6.78098 -6.84007 
2787 2 5.67837 7.04875 -6.78461 
2051 1 4.66527 -7.05113 -5.99621 
1295 1 4.88235 6.04339 -6.41371 
274 1 6.43749 6.53827 -6.06345 
2160 1 6.84731 6.05114 -6.55314 
878 1 6.99579 7.07871 -6.60939 
3539 2 6.08703 6.52817 -7.14665 
2574 1 -6.09114 -6.43464 -5.49657 
1490 1 -5.48324 -6.48326 -4.80411 
3416 2 -5.21765 -5.75812 -5.70821 
1772 1 -4.79138 -7.15882 -4.70868 
964 1 -4.07568 6.71302 -5.11248 
2727 1 -4.33192 -6.46747 -5.07678 
1725 1 -3.49547 -6.52146 -5.47892 
1836 1 -1.99827 -6.76579 -4.57867 
1691 1 -2.58947 -6.23669 -5.30177 
3455 2 -0.976848 -6.51109 -4.94629 
3594 2 -1.21301 -5.81069 -4.91195 
1582 1 -0.446842 -5.89112 -5.75117 
1210 1 0.158981 -6.39057 -5.14554 
3128 2 1.21618 -6.46608 -5.48298 
1416 1 2.03402 -6.20352 -4.71365 
2978 2 1.3129 7.07688 -5.50868 
893 1 2.8084 -6.53628 -5.23528 
2256 1 2.35026 -6.95126 -6.0538 
329 1 4.29418 -5.99955 -5.48347 
2462 1 4.29753 -6.84262 -5.29531 
665 1 3.74626 -6.28262 -4.75841 
2136 1 5.60258 -6.89899 -5.71166 
538 1 5.13089 -6.1046 -5.61538 
3487 2 -7.10372 -6.49887 -5.12826 
1263 1 5.99803 -6.06827 -5.70567 
2288 1 6.28114 -6.69522 -5.07698 
1718 1 -6.32445 -5.00047 -5.2778 
1555 1 -6.06406 -5.85965 -4.79751 
2269 1 -6.22176 -4.42538 -4.72621 
3325 2 -5.15147 -5.01968 -5.5003 
2912 2 -5.43708 -4.39004 -5.61888 
1784 1 -3.80731 -5.70563 -5.34868 
1609 1 -4.35936 -5.28132 -4.69755 
1344 1 -2.94772 -5.25869 -5.15196 
1071 1 -4.14869 -5.00131 -5.60928 
3574 2 -3.13576 -4.5623 -6.08025 
2139 1 -1.9618 -4.96721 -5.65738 
909 1 -2.27755 -5.62661 -5.01103 
15 1 -1.37035 -5.61755 -5.87895 
3322 2 -1.4358 -5.22817 -4.52891 
995 1 -1.32798 -4.42464 -5.37964 
842 1 -0.727374 -5.03037 -5.64704 
1643 1 -0.091106 -5.61008 -5.08114 
2102 1 -0.353972 -4.72045 -4.70487 
2826 2 1.0813 -5.58917 -5.35164 
3068 2 0.618667 -5.00773 -5.45492 
2113 1 1.88134 -5.07528 -5.70986 
480 1 1.94962 -5.3158 -4.72849 
2933 2 3.21847 -5.12649 -6.16017 
2145 1 2.2619 -5.88588 -5.62173 
224 1 2.78578 -5.53621 -4.97964 
281 1 4.21353 -4.87464 -5.32736 
2656 1 3.58482 -5.49002 -4.96143 
317 1 5.8042 -5.76143 -4.95086 
85 1 5.16751 -5.10576 -5.497 
2828 2 6.98957 -5.74315 -4.95687 
3010 2 6.90888 -4.92018 -4.9736 
1373 1 6.04362 -5.15235 -5.67396 
1872 1 -6.59744 -4.09518 -5.5244 
1999 1 -6.39086 -3.54108 -4.64514 
2737 2 -5.41898 -3.64078 -5.41495 
1465 1 -4.32846 -3.81203 -5.76105 
2496 1 -3.72432 -3.25853 -4.73575 
2248 1 -3.65499 -4.69819 -4.87393 
3061 2 -3.42174 -3.1102 -5.88056 
2310 1 -4.19393 -3.96543 -5.00314 
2426 1 -2.35814 -4.49122 -5.06424 
2549 1 -1.96154 -3.82517 -5.56765 
128 1 -1.29892 -3.48911 -5.33844 
1953 1 0.0377395 -3.44176 -5.99769 
139 1 -0.363536 -4.15461 -5.81783 
1722 1 -0.596442 -3.90406 -4.93357 
1073 1 1.93814 -4.35736 -4.94191 
2768 2 0.683491 -4.42375 -4.99012 
2178 1 1.56395 -3.77306 -5.67907 
3227 2 0.550632 -3.70114 -4.84036 
891 1 1.54923 -3.41109 -4.75375 
3249 2 2.93062 -4.51613 -5.78139 
3014 2 2.67649 -3.79854 -5.67896 
1976 1 4.15867 -4.475 -6.13999 
2150 1 3.67286 -4.41762 -4.85604 
388 1 3.88449 -3.75299 -5.33177 
1472 1 3.38107 -3.4189 -4.569 
1385 1 4.76909 -4.24547 -5.17716 
847 1 5.59132 -4.32401 -5.50426 
1034 1 5.36913 -3.42217 -5.14258 
1526 1 5.79401 -4.65657 -4.72474 
659 1 7.0921 -3.82258 -5.79328 
3080 2 6.86308 -4.15215 -4.80031 
452 1 6.11309 -3.46474 -5.85823 
3173 2 6.5821 -3.39021 -4.63258 
670 1 -6.86336 -2.41247 -5.51932 
656 1 -6.8941 -2.98176 -4.89316 
477 1 -4.49941 -2.6893 -5.37591 
2890 2 -5.614 -3.03078 -4.96954 
2974 2 -5.87286 -2.24557 -4.79001 
56 1 -4.69817 -1.89131 -4.75363 
2309 1 -4.31013 -2.58183 -4.53249 
3041 2 -3.42996 -2.34778 -5.63526 
821 1 -2.33953 -2.06799 -6.07262 
2524 1 -2.44549 -3.37801 -4.86697 
1979 1 -2.57554 -2.63965 -4.95341 
37 1 -1.74031 -2.59535 -5.30638 
1064 1 -0.975137 -2.78001 -4.51403 
484 1 -0.537515 -3.03602 -5.35262 
2105 1 -0.276503 -2.1774 -5.61936 
3430 2 0.435852 -2.87298 -4.70341 
1618 1 0.529095 -2.77096 -5.79328 
84 1 1.19293 -2.15396 -5.2459 
1767 1 1.33022 -2.95167 -5.64096 
2830 2 2.62804 -3.15811 -5.24933 
3356 2 2.49258 -2.40461 -5.07471 
1859 1 3.5771 -1.98778 -5.68203 
985 1 3.7639 -2.94006 -5.71349 
1313 1 4.56534 -3.22749 -4.83705 
72 1 3.77226 -2.65375 -5.03013 
2211 1 4.41007 -2.08226 -4.64475 
1830 1 5.43925 -1.85101 -4.8849 
1496 1 5.79151 -2.55228 -5.27899 
1207 1 6.69643 -3.07614 -5.58924 
720 1 6.59564 -2.14663 -5.51645 
1301 1 7.20367 -1.71027 -4.65897 
2993 2 -6.26919 -1.54166 -4.9214 
90 1 -6.68757 -1.49539 -5.8575 
1581 1 -4.9637 -1.89892 -5.69078 
1514 1 -5.23275 -1.16001 -5.50363 
1835 1 -5.00358 -1.14375 -4.61873 
2869 2 -3.72345 -1.65519 -5.43047 
2844 2 -3.88216 -0.797602 -5.22532 
1790 1 -2.55845 -1.5178 -5.56258 
400 1 -1.94892 -0.960301 -4.92366 
1380 1 -1.07522 -2.15705 -5.13353 
871 1 -1.91366 -1.86226 -4.99303 
2395 1 -1.06082 -1.23358 -4.86919 
3354 2 0.209464 -2.09041 -4.55414 
1057 1 0.512149 -1.75292 -5.65101 
2605 1 -0.319449 -1.27347 -5.6515 
1837 1 1.20275 -1.04345 -5.60819 
1890 1 1.16855 -1.28676 -4.63651 
1531 1 0.474714 -0.815033 -5.34453 
3557 2 2.25267 -1.69532 -5.12284 
3449 2 2.15845 -0.84859 -5.10961 
2995 2 4.52863 -1.39299 -5.58136 
2336 1 3.51365 -1.54851 -4.90893 
859 1 3.3171 -0.729387 -5.16256 
148 1 5.25296 -1.01488 -4.80151 
2130 1 6.06405 -1.41144 -5.26751 
34 1 6.90616 -1.20519 -5.29159 
2054 1 7.08902 -0.755812 -4.51286 
493 1 -6.07154 -0.355174 -5.54698 
1145 1 -6.89717 -0.528272 -5.39516 
1841 1 -6.14673 0.399507 -5.65254 
1402 1 -7.09598 0.321779 -5.46945 
3263 2 -6.50991 0.45551 -4.49222 
443 1 -5.4039 -0.155344 -5.4085 
385 1 -5.17925 -0.310723 -4.60667 
3543 2 -4.04501 -0.0958351 -5.08681 
3256 2 -4.365 0.609692 -4.80493 
2718 1 -2.97841 0.193074 -5.6217 
1928 1 -2.70468 -0.753857 -5.4256 
1268 1 -2.16966 0.143832 -4.70183 
2796 2 -2.02914 0.417106 -5.80573 
827 1 -3.01869 0.558389 -4.83726 
3200 2 -1.74996 -0.302249 -5.79415 
1074 1 -0.898772 0.277214 -5.18808 
2108 1 -0.64304 -0.503078 -5.35064 
1094 1 -0.367292 -0.517939 -6.21925 
75 1 0.201767 -0.0494917 -5.31871 
1374 1 1.14692 -0.1599 -5.58728 
1241 1 2.33645 0.381335 -5.8825 
76 1 3.06739 -0.0217355 -5.6117 
3383 2 2.08675 -0.0544947 -4.96247 
583 1 2.96812 0.318143 -4.38482 
3317 2 4.38178 -0.681797 -5.52893 
2848 2 4.27109 0.0966886 -5.53468 
2068 1 5.66325 -0.675427 -5.67437 
140 1 5.42311 0.0222081 -5.2392 
1568 1 6.32941 0.504058 -4.82304 
2297 1 6.28023 -0.449809 -5.07171 
1882 1 7.03333 0.0350122 -4.64844 
1335 1 -6.15966 1.39072 -5.56747 
1551 1 -5.45728 0.712154 -5.08344 
2423 1 -5.29072 1.4325 -4.60532 
2523 1 -5.11985 1.27798 -5.71756 
3144 2 -4.04498 1.20789 -5.00578 
1238 1 -3.73405 0.628058 -5.96432 
2939 2 -2.0835 1.20983 -5.70864 
2846 2 -2.18824 1.97962 -5.56857 
1483 1 -3.1057 1.24099 -5.4131 
1880 1 -1.38247 0.920377 -4.79846 
1257 1 -1.00063 1.41636 -5.62492 
1775 1 -1.38644 1.7961 -4.82414 
2489 1 -0.143959 0.987007 -5.33233 
549 1 0.53079 1.20781 -4.6885 
3443 2 1.80072 0.844032 -4.78471 
2406 1 0.740581 0.671949 -5.24601 
3241 2 1.68055 1.56269 -4.70681 
1713 1 1.34514 1.02021 -5.85374 
175 1 2.25626 1.39646 -5.6499 
1185 1 2.98043 0.876728 -5.04199 
2575 1 2.89903 1.82128 -5.0413 
3364 2 4.08658 0.917094 -5.39974 
3388 2 3.97785 1.71279 -5.19741 
2637 1 5.17426 1.62061 -5.14423 
455 1 4.92321 0.806075 -4.68693 
941 1 5.35089 0.88149 -5.40458 
1151 1 -7.04609 1.1804 -5.65734 
2327 1 6.00155 1.41598 -4.94611 
1200 1 6.86907 1.07014 -4.84664 
1584 1 -7.17881 2.15355 -6.20748 
2690 1 -6.70702 2.20069 -5.49456 
1224 1 -5.08516 2.42961 -5.81343 
2861 2 -4.38305 1.97308 -4.9986 
408 1 -5.65143 2.06194 -5.25905 
2200 1 -5.68199 2.98344 -5.19488 
3062 2 -4.62363 2.60036 -4.67816 
857 1 -3.3156 2.14845 -5.38757 
668 1 -4.12065 2.71148 -5.94824 
2436 1 -3.4022 2.59983 -4.71445 
732 1 -3.29983 3.32195 -6.01377 
3117 2 -2.3311 2.69829 -5.34113 
2647 1 -1.2078 2.81561 -5.0208 
46 1 -0.668131 2.09614 -5.23265 
2708 1 0.103773 1.80337 -5.04246 
1521 1 -0.222244 2.76039 -4.83665 
2442 1 0.422155 2.42378 -4.5096 
867 1 0.897748 1.6792 -5.42637 
1375 1 0.779814 2.70062 -5.29172 
2271 1 1.72563 3.06561 -5.54836 
3063 2 1.61044 2.29155 -4.55796 
970 1 2.08053 2.31309 -5.56332 
1614 1 2.62698 2.69898 -5.06883 
3433 2 3.9039 2.46887 -5.09613 
2092 1 4.96777 2.37018 -5.40852 
1778 1 5.24853 2.9227 -4.51634 
2584 1 5.78527 2.30344 -4.64086 
13 1 6.76166 1.96586 -5.25405 
829 1 6.86509 2.672 -4.95531 
3414 2 5.74144 2.9806 -5.81795 
3060 2 6.09471 2.17869 -5.97432 
92 1 -6.65717 3.23084 -5.13956 
412 1 -6.46482 4.01583 -4.83002 
896 1 -7.19869 4.30453 -4.99465 
789 1 -5.32474 4.28781 -5.98567 
2010 1 -4.96592 3.31674 -5.74272 
928 1 -5.63672 3.90725 -5.14568 
1986 1 -3.79779 3.22853 -5.30593 
1669 1 -4.33963 3.81433 -5.70386 
2495 1 -3.64646 4.27036 -5.63184 
2945 2 -2.61928 3.35031 -5.13409 
2977 2 -2.67671 4.10109 -4.98599 
353 1 -1.59205 3.39423 -5.68257 
197 1 -1.40349 4.03356 -5.11434 
1132 1 -0.592557 3.49786 -4.71651 
894 1 0.393069 3.52483 -4.86576 
2813 2 -0.437549 3.87825 -5.83539 
1639 1 1.14374 3.72063 -5.25925 
2176 1 0.76612 4.63986 -5.11441 
482 1 1.928 4.29073 -4.90624 
47 1 2.87637 3.22738 -5.8526 
614 1 2.75648 4.16717 -5.71279 
324 1 2.37884 3.59357 -5.09826 
2894 2 3.73709 3.23931 -5.0526 
3013 2 3.39998 3.9963 -4.80918 
2172 1 4.59352 4.41612 -5.33575 
2414 1 4.8047 3.43922 -5.33962 
3298 2 5.83287 3.66344 -5.41714 
2917 2 5.59824 4.46547 -5.2674 
1169 1 6.77844 3.58303 -4.85238 
1760 1 6.79886 3.95848 -5.79234 
3045 2 -6.70743 4.83689 -5.80525 
3147 2 -6.77022 5.59352 -5.53578 
60 1 -6.54345 5.02884 -4.56358 
2376 1 -4.62834 5.44222 -5.03379 
120 1 -5.80901 4.83129 -4.92755 
1004 1 -5.75626 5.70675 -5.16196 
1543 1 -4.64842 4.60232 -5.35512 
2687 1 -3.75459 5.04898 -5.35236 
2466 1 -3.9703 5.5014 -4.31917 
101 1 -3.85002 4.70966 -4.64074 
2865 2 -2.76807 4.8713 -4.75622 
883 1 -2.08917 5.30305 -5.94361 
2626 1 -1.68068 4.77659 -5.28323 
786 1 -1.74401 5.69842 -4.85046 
597 1 -1.55704 4.81271 -4.44167 
3378 2 -0.381425 4.7153 -5.54768 
1486 1 0.508381 5.51561 -5.23355 
3392 2 -0.682071 5.43267 -5.28772 
2322 1 0.252912 5.44741 -6.24943 
23 1 1.49384 5.06303 -5.02259 
103 1 2.3703 4.85772 -5.26758 
2025 1 3.88845 4.91795 -5.48131 
1422 1 3.28645 5.40588 -5.30941 
865 1 4.11027 6.04633 -5.1581 
1390 1 4.32958 5.077 -4.70134 
2927 2 5.39595 5.31022 -5.10861 
2541 1 6.56532 4.82733 -5.46752 
2209 1 6.86271 5.19806 -4.75516 
2747 2 -7.06331 7.13635 -5.34675 
3330 2 -6.98869 6.30289 -5.47949 
2573 1 -5.81614 6.27202 -5.79691 
1396 1 -5.64076 7.04258 -5.07089 
297 1 -6.13878 6.56026 -4.76837 
803 1 -5.01127 6.27242 -4.9557 
2275 1 -3.89315 5.79498 -5.04245 
1227 1 -2.55695 -7.07321 -5.35472 
1394 1 -2.63214 6.16453 -5.76691 
3458 2 -2.82395 5.5903 -4.82257 
715 1 -3.29848 6.76328 -5.47191 
2326 1 -1.97973 6.536 -5.45896 
3018 2 -0.852694 6.99586 -4.98683 
3207 2 -0.740057 6.22576 -5.03045 
2491 1 0.013805 7.15165 -6.01309 
1435 1 0.271816 6.22497 -5.5112 
1382 1 0.118508 7.00349 -5.15291 
1709 1 1.21379 5.80163 -4.78742 
2899 2 1.34306 6.29083 -5.95158 
862 1 2.48524 6.69884 -5.36024 
1992 1 2.0756 -7.06757 -4.75174 
1175 1 3.27967 7.21338 -5.21069 
1249 1 2.46439 5.59478 -4.96713 
295 1 3.38499 6.27879 -5.14136 
1513 1 4.6427 6.55109 -5.73387 
1051 1 5.57437 6.556 -5.86824 
3257 2 5.30575 6.02114 -4.98347 
2971 2 5.20273 6.67525 -4.61071 
1667 1 6.47769 6.0317 -5.31095 
1530 1 6.22684 6.9548 -5.33284 
1060 1 -6.16402 -6.8885 -4.49016 
1312 1 -6.57744 -6.19211 -4.00068 
1399 1 -6.62546 -6.97499 -3.41602 
582 1 -4.91684 -5.77113 -4.68975 
3469 2 -5.59301 -6.73186 -3.62765 
3545 2 -5.54633 6.94846 -3.61013 
2835 2 -3.46191 -6.57309 -4.31055 
138 1 -4.32287 -7.09998 -3.78085 
2332 1 -4.58392 -6.23177 -4.16702 
2033 1 -2.77246 -6.79808 -3.50431 
356 1 -2.18934 -6.09452 -4.14296 
3265 2 -3.1747 7.00511 -4.43608 
180 1 -1.53893 -6.50932 -3.78944 
945 1 -0.548098 -6.45107 -3.84327 
1127 1 0.0186878 -5.98119 -4.28612 
1881 1 0.515623 -6.66069 -4.54863 
2969 2 0.512524 -6.16505 -3.11324 
3236 2 0.590123 -6.92275 -3.17484 
1799 1 1.26143 -6.4622 -4.23826 
2298 1 1.52976 -5.95957 -3.58299 
3303 2 2.87322 -6.5897 -3.89602 
3290 2 4.97975 -6.10101 -4.46072 
144 1 4.32919 -6.08867 -3.31594 
492 1 4.11448 -6.86337 -4.00923 
189 1 4.99103 -6.90637 -3.51949 
2926 2 5.14033 -6.94876 -4.83218 
2571 1 5.9522 -6.42615 -4.03975 
244 1 6.39861 -7.15198 -4.41958 
2029 1 6.89797 -6.3375 -3.93151 
2162 1 7.17305 -5.38352 -3.7661 
1893 1 -6.58247 -5.08442 -4.20504 
1885 1 -5.55054 -5.35419 -4.31947 
3228 2 -5.67326 -5.96615 -3.38164 
2318 1 -4.86006 -5.23709 -3.76788 
3413 2 -3.51745 -5.74098 -4.14803 
3562 2 -3.53282 -4.92819 -3.75458 
104 1 -2.49471 -4.9952 -4.16387 
350 1 -2.643 -5.80447 -3.24167 
708 1 -1.03684 -5.74621 -3.56945 
322 1 -1.88935 -5.4371 -3.55746 
3480 2 -1.47708 -4.4925 -4.32305 
687 1 -0.431916 -5.17502 -3.97316 
1863 1 0.468306 -4.99618 -3.97691 
1075 1 1.3397 -4.95581 -4.09241 
635 1 0.936612 -5.79218 -4.20942 
1069 1 1.46929 -5.20612 -3.27695 
2918 2 2.61537 -5.89154 -3.8916 
3379 2 2.58161 -5.00048 -3.62705 
1653 1 3.57799 -5.02931 -4.18611 
303 1 3.78319 -4.70698 -3.39673 
2075 1 3.74104 -5.82246 -3.90339 
126 1 4.3088 -5.35186 -3.22027 
3340 2 4.7487 -4.75789 -4.0868 
2825 2 4.54771 -5.45435 -4.39377 
2695 1 5.55963 -5.43678 -3.80274 
1878 1 5.80783 -4.53516 -3.77133 
168 1 5.13249 -4.82586 -3.15304 
1000 1 6.25322 -5.47233 -4.13628 
1994 1 6.73546 -4.60444 -3.73315 
1013 1 -6.62171 -4.19113 -4.0008 
2896 2 -6.07393 -4.38928 -3.14544 
2106 1 -5.47889 -4.45234 -4.32624 
2388 1 -4.71839 -4.38446 -4.53339 
1481 1 -5.55602 -3.75228 -4.03228 
1733 1 -4.77833 -3.47931 -4.42976 
2350 1 -4.92788 -4.31338 -3.45655 
3536 2 -3.88496 -4.23782 -3.88448 
3376 2 -3.91534 -3.39071 -3.63701 
1143 1 -2.9699 -3.95717 -4.64771 
458 1 -2.68083 -4.13373 -3.76263 
1470 1 -2.91602 -3.14046 -3.9459 
3285 2 -1.67889 -3.82406 -4.25992 
851 1 -0.971469 -3.41974 -3.39852 
954 1 -0.556843 -4.27484 -3.76979 
1431 1 0.19721 -4.13766 -3.88304 
2044 1 0.254941 -3.34481 -3.59333 
1611 1 1.05221 -4.2476 -3.88938 
1237 1 1.90009 -4.131 -4.13894 
2306 1 2.79784 -4.63457 -4.67352 
3230 2 2.23957 -4.32854 -3.18319 
879 1 3.11795 -3.26509 -3.49713 
535 1 2.65787 -3.76607 -4.33551 
2712 1 3.23304 -4.04536 -3.83001 
3244 2 4.34298 -3.97592 -3.98684 
2857 2 4.24038 -3.23152 -3.78968 
1493 1 5.37189 -3.61493 -4.23708 
1673 1 6.99383 -3.79985 -3.47056 
2721 1 6.13892 -3.84135 -3.66778 
844 1 -6.95018 -3.21622 -3.79118 
587 1 -5.96812 -3.03541 -3.89688 
874 1 -5.94146 -2.02168 -3.5669 
831 1 -6.74637 -2.4482 -4.25429 
1144 1 -5.0282 -2.57704 -3.99942 
525 1 -5.38252 -2.3865 -3.21592 
647 1 -3.29157 -2.5795 -4.42992 
3083 2 -4.06808 -2.68806 -3.41395 
172 1 -3.06171 -2.21 -3.48421 
2916 2 -1.87073 -3.09393 -4.1776 
2542 1 -0.969868 -1.84321 -4.16443 
1028 1 -0.471087 -3.30153 -4.14619 
3198 2 -2.05346 -2.36207 -3.93119 
1266 1 -0.875305 -2.40016 -3.62979 
2020 1 -0.0766437 -2.49585 -3.40259 
858 1 0.732914 -2.44237 -3.48743 
1946 1 1.41708 -2.59188 -4.21748 
250 1 1.72753 -3.35307 -3.97922 
1843 1 1.0518 -3.22492 -3.59906 
236 1 2.9467 -2.20094 -3.14975 
169 1 2.54801 -2.94482 -3.96362 
922 1 2.39601 -2.13491 -3.91105 
110 1 3.24618 -2.66974 -4.18017 
3353 2 4.11028 -2.4693 -3.66678 
190 1 5.17413 -2.68076 -4.39355 
2365 1 5.2365 -2.16457 -3.78287 
2239 1 5.83474 -3.08659 -3.75543 
2858 2 6.43407 -2.561 -4.38667 
3267 2 -6.03125 -0.987708 -4.61252 
1707 1 -6.136 -1.09161 -3.44621 
1575 1 -7.08091 -0.852748 -3.64895 
1572 1 -5.47688 -1.59397 -2.92379 
572 1 -5.04405 -1.69227 -3.98014 
960 1 -5.35807 -0.959989 -3.66309 
808 1 -4.15392 -1.05238 -4.24881 
1446 1 -3.87736 -1.80697 -4.18935 
1864 1 -3.01015 -1.53966 -4.5696 
2601 1 -2.87203 -0.365221 -4.73025 
2638 1 -3.32375 -1.30208 -3.67477 
2766 2 -2.10211 -1.60864 -3.99321 
2748 2 -2.2809 -0.886344 -3.71992 
1484 1 -1.13298 -0.980282 -3.98715 
3585 2 0.0308509 -1.36807 -4.48701 
2540 1 -0.214168 -1.66046 -3.42751 
202 1 1.58777 -1.75995 -4.0595 
984 1 0.760802 -1.61956 -3.65349 
2434 1 1.04469 -0.812206 -3.84189 
1337 1 3.23148 -1.82815 -4.11866 
247 1 2.54648 -1.30444 -3.83538 
2084 1 4.17747 -1.07935 -4.44004 
3134 2 4.0539 -1.59452 -3.43412 
2914 2 3.69508 -0.931253 -3.32798 
2352 1 5.01808 -1.46825 -4.24501 
1703 1 4.8843 -0.796199 -3.80678 
1325 1 -6.71552 -1.64439 -3.84667 
3116 2 6.33121 -1.83825 -4.16042 
2856 2 6.15899 -1.01606 -4.07994 
1720 1 6.66752 -1.15727 -3.25301 
3186 2 -6.36169 -0.248834 -4.41163 
319 1 -6.94316 0.0722592 -3.45624 
1428 1 -5.24031 0.239323 -3.95694 
111 1 -4.54011 -0.518557 -3.96422 
1627 1 -6.0827 0.531728 -3.35317 
2302 1 -4.18471 0.284338 -3.81765 
2674 1 -3.56389 -0.355019 -4.0232 
1248 1 -3.59427 -0.398804 -3.11083 
2789 2 -2.49837 -0.0992253 -3.61488 
3490 2 -2.69174 0.707369 -3.59904 
2241 1 -1.35254 -0.114421 -3.87888 
1971 1 -1.37328 -0.344459 -4.77304 
3500 2 -0.0581872 -0.551385 -4.32471 
692 1 0.585205 -0.235297 -3.57637 
3555 2 -0.231002 0.317218 -4.30434 
1432 1 1.02693 -0.422993 -4.56817 
1296 1 0.860792 0.388166 -4.48355 
2013 1 1.87937 -0.790195 -3.85946 
1700 1 1.51423 0.0602642 -3.84832 
506 1 2.3642 -0.0622237 -3.7988 
2722 1 2.99832 -0.801015 -4.32125 
296 1 3.69604 -0.119025 -4.56366 
3305 2 3.48051 0.41017 -3.23768 
1648 1 4.59449 -0.229601 -4.51036 
2902 2 5.76428 -0.251771 -4.07594 
1548 1 4.59043 -0.0570824 -3.58235 
2819 2 5.63454 0.52415 -3.99201 
523 1 6.78772 -0.03407 -3.77913 
3260 2 -6.50433 1.31253 -4.60097 
817 1 -6.76961 1.05489 -3.36051 
1793 1 -5.76469 1.14679 -3.86213 
1913 1 -5.80262 1.93615 -3.59487 
1343 1 -4.7951 0.966174 -3.86784 
1316 1 -3.95678 1.38128 -3.66174 
882 1 -3.51945 0.684424 -4.2287 
2529 1 -3.50317 1.73319 -4.27664 
2077 1 -2.36929 0.925749 -4.6595 
1910 1 -2.70083 1.71431 -4.62784 
969 1 -1.91875 1.5911 -4.12337 
14 1 -1.70752 0.672214 -3.90705 
3196 2 -0.532839 1.81863 -4.01534 
2950 2 -0.546781 0.967761 -4.07879 
2 1 0.705083 0.954775 -3.71171 
414 1 1.23374 1.99477 -3.50676 
130 1 1.60242 1.17805 -3.55419 
613 1 2.84706 1.44228 -4.35803 
254 1 2.26284 1.71649 -3.62982 
620 1 2.475 0.851458 -3.84314 
840 1 4.33479 0.541416 -4.0438 
1364 1 3.75776 0.892552 -4.38561 
2707 1 3.62875 1.71408 -4.19714 
1466 1 4.73159 1.7256 -4.2675 
2223 1 4.48555 1.41618 -3.63409 
3209 2 5.62377 1.34058 -3.7652 
698 1 6.54683 1.67376 -4.12556 
823 1 6.88501 0.77563 -3.81056 
1298 1 6.93253 1.5157 -3.36613 
3033 2 -6.81339 1.93078 -4.3686 
2751 2 -6.84174 2.80126 -4.19168 
35 1 -6.06213 2.82036 -3.31166 
1607 1 -5.53149 2.30475 -4.3109 
2278 1 -4.71935 1.82038 -3.79593 
978 1 -4.96511 2.6383 -3.53164 
1761 1 -4.32528 3.20819 -3.32953 
1783 1 -3.9931 2.38228 -3.82839 
358 1 -3.64619 3.16589 -3.89811 
154 1 -2.66728 2.4847 -4.21559 
2860 2 -0.738559 2.53825 -3.98398 
1661 1 -1.80348 2.51555 -4.56665 
2030 1 -1.86641 2.48613 -3.66584 
2328 1 0.615772 1.74145 -4.08021 
3479 2 1.46005 3.00815 -4.38115 
441 1 1.86018 2.52455 -3.39335 
1012 1 0.73567 2.67273 -3.4322 
946 1 2.7153 2.29858 -4.17407 
1644 1 2.51336 3.20123 -4.3676 
167 1 2.38817 3.05102 -3.58195 
556 1 4.2112 2.22534 -3.60784 