ITEM: TIMESTEP
10700
ITEM: NUMBER OF ATOMS
3594
ITEM: BOX BOUNDS pp pp pp
-7.1889072200107202e+00 7.1889072200107202e+00
-7.1889072200107202e+00 7.1889072200107202e+00
-7.1889072200107202e+00 7.1889072200107202e+00
ITEM: ATOMS id type x y z 
1148 1 -6.46386 7.14695 -6.35478 
1616 1 -6.69349 -6.25842 -6.27403 
2574 1 -6.00401 -6.62086 -5.96395 
1282 1 -5.87126 -6.1998 -6.75386 
3477 2 -4.9495 -7.20965 -6.15253 
2396 1 -5.85947 7.24258 -6.76706 
2058 1 -3.79937 -6.98492 -5.97662 
1784 1 -3.94206 -6.02338 -6.09753 
1654 1 -5.29911 -6.77429 -7.16025 
1246 1 -4.08345 -6.55796 -6.81496 
3454 2 -2.74693 -6.89812 -6.5854 
448 1 -0.803251 -6.32244 -5.98814 
2627 1 -1.55223 -6.60562 -6.36212 
26 1 -1.13594 7.02089 -6.26507 
15 1 -0.390668 -5.21905 -5.69353 
3368 2 -0.524757 -6.08578 -6.98802 
1088 1 0.194133 -6.69254 -5.93976 
1261 1 1.589 -7.11487 -6.62003 
2415 1 1.71647 6.4951 7.24861 
579 1 1.06086 -5.70025 -6.54727 
2379 1 2.39735 -5.38391 -6.60514 
2957 2 3.46533 -6.35539 -6.15048 
2590 1 2.67351 -6.11834 -7.10393 
40 1 1.96211 -6.30862 -6.60393 
3442 2 3.27656 -7.10893 -6.30486 
589 1 4.60486 -6.57797 -6.2344 
1215 1 4.22939 -6.77438 -6.93625 
3208 2 5.66662 -6.4092 -6.69336 
2787 2 5.69039 -7.16504 -6.98108 
1724 1 4.53943 7.04261 6.86596 
2136 1 6.07162 -6.59309 -5.02454 
112 1 6.37532 -6.85782 -5.92962 
558 1 -6.0694 -5.46761 -6.35405 
3495 2 -6.92873 -4.68168 -7.04485 
3366 2 -6.66652 -5.36489 7.02048 
601 1 -4.80653 -5.9963 -6.9627 
1459 1 -5.41727 -5.44482 -7.12335 
606 1 -3.52419 -5.82872 7.06013 
1465 1 -4.13726 -5.49213 -6.74133 
3268 2 -2.80282 -6.06466 -6.45018 
2944 2 -3.02252 -5.42023 -6.18651 
2114 1 -3.29283 -4.53864 6.78378 
3484 2 -0.698555 -4.55659 -6.94771 
386 1 -1.8777 -4.95961 -6.43366 
3019 2 -0.679993 -5.30065 -6.9714 
685 1 0.537164 -5.15298 7.15472 
1582 1 0.0198637 -4.66934 -6.0906 
480 1 1.61435 -5.21514 -6.23677 
271 1 0.812425 -4.72547 -6.51968 
2600 1 2.82366 -4.95962 7.0316 
1770 1 2.50672 -4.56417 6.29566 
2623 1 3.45428 -6.11789 7.07206 
628 1 4.36207 -5.50538 -6.16321 
2407 1 4.04583 -4.6802 -6.10749 
645 1 4.40748 -5.7122 -6.99504 
2812 2 5.46689 -5.56005 -6.65015 
3212 2 5.39852 -4.78015 -6.42315 
802 1 6.62672 -5.05827 -6.22636 
274 1 7.09794 -6.95688 -6.54933 
10 1 6.29275 -5.95686 -5.75157 
1437 1 -5.93974 -4.22437 7.008 
3029 2 -7.15717 -3.82486 -6.88134 
659 1 -6.27278 -4.47976 -6.00291 
472 1 -5.05944 -3.90437 -6.36855 
1918 1 -4.81122 -4.96404 -6.51361 
1087 1 -3.67423 -4.78892 -6.78491 
1840 1 -1.61488 -4.19788 7.09268 
909 1 -1.97239 -3.96063 -6.38024 
1392 1 -3.29588 -3.63457 -7.11532 
520 1 -2.7356 -4.39138 -6.92278 
2808 2 -0.931709 -4.00155 -6.44541 
2591 1 -1.24064 -4.27432 6.18752 
2048 1 0.156008 -4.36974 6.55987 
1940 1 0.224889 -4.13714 -6.97318 
2589 1 1.35016 -4.3093 -5.9526 
3158 2 1.20698 -3.52861 -7.21167 
1767 1 2.01366 -3.52347 -6.35791 
19 1 2.07081 -2.95793 6.91763 
1695 1 3.55971 -5.23339 -6.96944 
1168 1 3.32026 -4.33061 -6.65305 
2150 1 4.15937 -3.87566 -5.55668 
638 1 4.45445 -4.75645 -7.05335 
2631 1 4.19497 -3.91575 -6.84838 
3266 2 5.16958 -4.03003 -6.31158 
2348 1 6.57057 -5.40929 -7.07674 
1788 1 6.30229 -4.44129 -6.77009 
2015 1 -6.23566 -3.30667 7.08258 
2975 2 7.03696 -3.07931 -6.6083 
3126 2 6.94936 -2.13144 -6.52914 
346 1 -6.4962 -3.37971 -5.76376 
2510 1 -6.3935 -2.06519 -7.16814 
2045 1 -5.99054 -3.69177 -6.54266 
670 1 -6.34819 -2.7001 -6.45415 
2892 2 -5.2164 -2.69206 7.03892 
1800 1 -4.00352 -2.92238 -6.87295 
923 1 -4.11293 -3.79691 -6.81009 
2578 1 -3.84292 -1.8475 -6.94106 
1315 1 -2.40085 -3.52753 -6.93614 
2187 1 -1.69784 -3.41286 7.11404 
3332 2 -1.18203 -3.27923 -6.19371 
3234 2 -1.16147 -2.50917 -6.20332 
2368 1 -0.237661 -2.34517 -6.68982 
1106 1 -0.400564 -1.31718 -6.65162 
2381 1 -0.0173937 -2.04496 -5.98772 
3503 2 0.869531 -2.86948 -6.83082 
886 1 1.63668 -1.53697 -5.7331 
1984 1 1.59189 -2.48552 -5.96222 
1738 1 2.78151 -2.53148 -6.3925 
1635 1 2.04364 -2.62155 -6.73037 
799 1 2.86047 -3.49947 -6.72262 
1698 1 4.37581 -2.76423 -7.1312 
1385 1 3.63517 -3.55883 -6.24529 
2767 2 4.86388 -3.24377 -6.16014 
1362 1 5.31674 -2.90579 -7.0236 
847 1 6.05781 -2.92525 -6.19295 
2530 1 5.66273 -2.22556 -6.88464 
1207 1 -6.17999 -1.82086 -6.33417 
194 1 -6.40414 -1.07717 -6.65111 
720 1 -6.80843 -1.45736 -5.56295 
3360 2 -5.28181 -1.94473 -7.1387 
3097 2 -5.18657 -1.17769 -7.13466 
1369 1 -5.34105 -1.74228 -5.97572 
1514 1 -4.65694 -1.18607 -6.19611 
2195 1 -4.26025 -1.16107 -6.92276 
1445 1 -3.0259 -2.7272 -6.68466 
1370 1 -2.17428 -2.65842 -6.63306 
2641 1 -3.18577 -1.04493 -6.57014 
911 1 -2.62646 -1.84473 -6.53453 
1822 1 -1.97066 -1.78281 -7.1301 
174 1 -0.955932 -1.43764 7.09468 
3105 2 -1.44846 -1.76559 -6.05683 
2480 1 -0.496625 -0.857254 -6.00318 
1074 1 -0.644039 -0.540263 -6.82486 
1837 1 1.91219 -0.991594 -7.05487 
2804 2 0.907765 -1.24391 -6.59159 
3347 2 0.884852 -2.10584 -6.80721 
1859 1 2.25073 -0.808151 -6.15583 
72 1 3.50899 -2.05135 -6.1071 
925 1 2.82923 -1.48037 -6.0561 
2500 1 3.86078 -1.14987 -6.48249 
2183 1 3.64878 -2.80776 -6.54774 
1806 1 4.11297 -1.99131 -6.74957 
483 1 4.94855 -1.85274 -6.99361 
140 1 5.73429 -0.715074 -6.05288 
2086 1 5.34902 -0.27346 -6.53372 
3087 2 6.88483 -1.33986 -6.45723 
2840 2 6.74225 -0.499588 -6.36713 
2068 1 5.69927 -1.33582 -6.6081 
1340 1 -6.61597 -0.22838 -6.26959 
1684 1 -7.07254 -0.394322 7.15606 
3127 2 -5.46936 -0.455174 -6.79451 
3007 2 -5.70082 0.278598 -6.5422 
2180 1 -5.03474 0.773231 -5.80889 
493 1 -5.2627 -0.556831 -5.75347 
83 1 -4.04471 -0.211054 -6.69264 
1928 1 -3.29602 -0.0801118 -6.31003 
443 1 -4.642 -0.0800722 -6.11328 
1815 1 -2.41375 -0.826157 -6.86601 
1790 1 -2.76915 -1.03826 -5.88286 
1457 1 -1.54035 -0.8578 -7.03967 
1094 1 -0.763122 0.195466 -6.13356 
1116 1 -0.981353 0.994571 -6.48722 
1265 1 -1.38417 0.0616784 -6.99627 
1057 1 0.0715914 -0.571489 -5.40713 
3151 2 0.514659 -0.650167 -6.61437 
3088 2 0.500943 0.201254 -6.58717 
769 1 1.66866 -0.145008 -6.73449 
1241 1 2.32219 0.558648 -6.01326 
1834 1 2.79368 -0.155526 -5.86749 
2336 1 3.44776 -0.657507 -5.71115 
2960 2 2.79886 0.398773 -6.91005 
2535 1 3.96916 -0.129135 -6.57009 
873 1 4.76138 0.221937 -6.4512 
1895 1 3.74515 0.00835018 6.93744 
455 1 5.32666 0.409654 -5.82937 
2617 1 4.82777 -1.01352 -6.78883 
234 1 5.81735 0.415359 -6.86988 
2797 2 6.65924 0.0310263 -5.79988 
3135 2 6.39293 0.651558 -6.0875 
1455 1 -7.00266 0.634967 -6.51083 
1027 1 -6.66635 1.40149 7.18573 
263 1 7.15092 1.92944 -6.43087 
3140 2 -5.92213 1.07761 -6.40066 
1670 1 -4.88766 1.58616 -6.97794 
3148 2 -3.76037 1.56429 -6.90964 
857 1 -3.57538 1.70433 -5.92532 
2677 1 -3.84709 0.624585 -6.09564 
580 1 -2.93168 0.762367 -6.23875 
1523 1 -2.32158 0.91275 -7.06757 
395 1 -2.45462 0.00184259 -6.81269 
1965 1 -1.75566 1.12863 -6.61981 
855 1 -1.20963 1.76154 -6.50067 
3311 2 0.230419 1.10343 -6.33694 
2928 2 0.144368 1.82523 -6.18165 
2558 1 1.55939 0.321819 -6.08231 
2522 1 1.07118 2.58351 -6.15693 
1368 1 1.27542 1.61383 -6.07715 
3459 2 2.49511 1.17859 -6.91192 
3393 2 2.36626 1.96813 -6.66559 
2231 1 3.2669 1.49444 -6.12493 
2380 1 4.24753 1.79631 -6.33634 
2276 1 3.73534 1.08926 -6.8956 
1648 1 5.13113 1.04323 -6.25363 
50 1 4.98981 1.98876 -6.04228 
2414 1 4.17646 2.68814 -5.91148 
1176 1 5.85074 1.42944 -6.97077 
2637 1 6.7232 1.24612 -6.93707 
571 1 6.77683 0.397082 -7.11778 
3465 2 -5.87365 1.89129 -6.38697 
2736 2 -6.1385 2.6857 -6.32992 
1662 1 -6.3964 2.94593 7.05998 
339 1 -6.90648 2.13856 -7.13236 
1410 1 -5.25776 2.22025 6.85486 
2386 1 -5.06794 2.83433 -6.6681 
1224 1 -4.80885 2.09328 -6.21565 
3093 2 -3.97564 2.21556 -7.11045 
2783 2 -3.74233 2.87897 -6.79903 
488 1 -3.06947 3.98461 -6.86193 
1933 1 -2.08668 2.25134 -6.57228 
2505 1 -2.74839 2.62623 -7.16515 
1833 1 -3.08497 2.44637 -6.25963 
1932 1 -1.40326 2.70558 -6.16391 
902 1 -0.950549 2.71954 -6.77975 
474 1 -0.971385 3.63916 -6.65549 
3078 2 -0.173685 2.465 -5.97653 
673 1 0.855047 3.24528 -6.50581 
894 1 1.26392 2.76336 -5.39701 
2429 1 0.845924 3.73496 -5.72556 
3417 2 2.41817 2.76513 -6.57013 
785 1 3.18569 3.42498 -6.63837 
3478 2 2.01527 3.2668 -6.23095 
268 1 3.15434 2.33433 -5.84479 
486 1 2.86406 3.24329 6.87511 
2711 1 3.66891 2.50233 -6.59056 
3215 2 4.40452 2.69145 7.04101 
74 1 3.40688 1.91367 -6.97706 
2092 1 5.58212 2.2377 -6.60912 
1778 1 5.01017 2.26696 -5.21534 
2305 1 -7.11024 2.55297 -5.75869 
1515 1 5.57997 2.82974 7.04036 
2072 1 6.4347 2.11872 -7.01457 
3238 2 -6.28263 3.65676 -6.09576 
3045 2 -6.44261 4.43316 -5.85684 
789 1 -5.23262 4.24926 -6.09547 
2685 1 -5.38032 3.84123 -6.87735 
3408 2 -4.11847 3.61899 -6.71807 
3411 2 -4.08517 4.31787 -6.2913 
1264 1 -2.28453 3.08514 -6.40183 
285 1 -3.42753 4.36633 6.86547 
1894 1 -3.25184 4.18613 -5.65682 
1623 1 -1.67372 3.56871 -6.07995 
2452 1 -0.712339 4.27452 7.01034 
1230 1 -1.09698 4.99511 -6.9214 
586 1 0.33476 3.98151 -6.83336 
2630 1 -0.193974 4.70288 -6.81381 
1486 1 0.489001 4.57054 -6.19543 
2000 1 0.808648 4.84483 -7.04475 
1685 1 0.562032 5.49896 -6.86053 
3466 2 1.74631 3.94885 -6.38263 
1689 1 2.66192 5.14765 -6.12772 
1066 1 3.7012 3.40673 -5.88576 
908 1 4.6895 3.82633 -5.97553 
3551 2 4.21612 3.45128 -6.97785 
3223 2 3.96446 4.34864 -6.83475 
2025 1 4.76888 4.85868 -5.87285 
2066 1 4.94011 3.07421 -6.33369 
1883 1 6.23617 3.01338 -6.60148 
2377 1 5.60004 3.74676 -6.65969 
131 1 -7.07741 3.84351 -6.74389 
889 1 6.48085 3.92158 -6.37225 
577 1 7.16958 2.8982 -6.83743 
718 1 -5.97684 4.71707 -7.06744 
1594 1 -6.47685 5.59035 -6.76583 
1631 1 -7.08447 4.86294 -7.04994 
2191 1 -5.44601 5.52864 -7.094 
1697 1 -5.45413 5.12242 -6.25426 
233 1 -5.02743 4.58917 -7.14462 
3463 2 -4.5015 5.81442 -6.35897 
3471 2 -4.27276 5.04425 -6.46201 
2687 1 -3.45814 5.40204 -5.70148 
1102 1 -2.44456 4.205 -6.0855 
3306 2 -2.242 5.27296 -6.86602 
3098 2 -2.14088 4.54722 -7.18634 
1394 1 -2.68023 5.12008 -5.89551 
345 1 -1.52397 6.21641 -5.97231 
741 1 -1.31373 5.27536 -6.22071 
282 1 -1.143 5.77272 6.93869 
1744 1 -0.331325 5.50237 -6.63703 
3138 2 1.62892 4.78335 -6.32197 
2831 2 1.54864 5.64025 -6.17631 
96 1 2.16218 5.78981 -7.07387 
1435 1 0.282258 6.17374 -6.28347 
862 1 2.80687 5.97305 -6.36629 
103 1 2.36431 5.4823 -5.24107 
215 1 2.55238 5.02777 -7.14315 
2790 2 3.87586 5.13879 -6.76269 
865 1 5.39193 5.47374 -6.10286 
255 1 4.97749 5.50019 -6.83474 
141 1 5.867 4.74865 -6.49458 
365 1 6.8314 4.69897 -6.36492 
2662 1 -6.68385 6.43881 -6.82996 
1772 1 -5.80975 6.86769 -5.64437 
1396 1 -5.91171 6.02639 -6.09674 
2437 1 -5.57704 6.32251 -6.84865 
2122 1 -4.51816 -7.17478 -7.15808 
3150 2 -4.85868 6.41528 -6.22887 
2002 1 -3.89857 6.86878 -6.87106 
2576 1 -3.25551 5.74066 -6.56523 
2832 2 -2.70223 6.75241 -6.85388 
2839 2 -2.20856 6.06021 -6.77061 
2238 1 -1.62297 -6.90728 7.01178 
1702 1 -0.269511 6.95543 -6.12179 
2322 1 0.343281 6.70181 -5.48984 
1308 1 0.693878 7.007 -6.57185 
1107 1 -0.150007 -5.96633 -5.28038 
798 1 -0.622768 6.21501 -6.36804 
1634 1 2.64127 -7.0693 -7.08133 
2899 2 1.31922 6.38243 -5.88185 
1333 1 2.23446 6.79288 -6.52226 
3587 2 3.71486 6.668 -6.48065 
3569 2 3.81257 5.9671 -6.55664 
2594 1 4.82965 6.95099 -6.4819 
404 1 5.01364 6.20611 -6.17835 
1879 1 6.40261 6.65697 -6.2366 
585 1 7.10372 5.89401 7.08959 
115 1 6.76029 5.5344 -6.43277 
3539 2 5.7386 6.50119 -7.16156 
2160 1 5.67022 6.61717 -5.91448 
2727 1 -5.84015 -6.8017 -5.15666 
3487 2 -7.0979 -6.52147 -5.20082 
3520 2 -5.02398 -6.37564 -5.91859 
1885 1 -5.83934 -5.86257 -4.63955 
964 1 -5.19903 -6.32521 -4.7642 
715 1 -3.16449 -6.29385 -5.42309 
977 1 -4.13807 -6.40864 -5.3297 
1004 1 -4.79461 -7.01567 -4.85223 
897 1 -3.03895 6.8229 -5.62976 
1227 1 -2.23043 -6.86133 -5.26066 
1725 1 -1.82704 -6.09535 -5.79077 
3455 2 -1.15638 -6.76764 -5.005 
3594 2 -1.27151 -6.02889 -4.80042 
2018 1 -1.81625 6.54628 -5.03234 
2491 1 0.0947252 -6.83082 -5.10128 
687 1 -0.207698 -5.15687 -4.78265 
3128 2 1.16462 -6.40601 -5.5621 
2145 1 2.15851 -5.79014 -5.80614 
893 1 2.19297 -6.33686 -5.13038 
224 1 2.96978 -6.15033 -5.14618 
2462 1 3.1114 -7.08806 -5.03424 
440 1 3.98389 -6.76033 -5.17414 
329 1 4.77414 -6.06256 -5.64528 
1051 1 5.39099 -6.95004 -5.77076 
2479 1 5.61444 -5.90921 -5.46891 
2828 2 6.99462 -5.60016 -5.00444 
1555 1 -6.11662 -5.83161 -5.48585 
1718 1 -6.36316 -5.02598 -5.38406 
2023 1 -5.52431 -4.60099 -6.62504 
1954 1 -6.85852 -5.4035 -6.02389 
2912 2 -5.21469 -4.3185 -5.4626 
3416 2 -5.14826 -5.68707 -5.82585 
3325 2 -5.22823 -5.10362 -5.40607 
1071 1 -4.16937 -5.19953 -5.68369 
582 1 -4.40016 -4.91342 -4.83365 
1671 1 -4.17348 -4.51445 -6.18183 
2496 1 -4.20386 -3.89162 -5.66124 
2612 1 -3.55517 -5.56656 -5.24551 
401 1 -2.85143 -5.06014 -4.762 
1691 1 -2.17658 -5.04532 -5.58921 
2139 1 -1.21611 -5.42 -6.05629 
3322 2 -1.41155 -5.26856 -4.63817 
1210 1 0.167001 -5.84844 -4.47759 
1966 1 0.205958 -5.71699 -6.22937 
842 1 -0.722083 -4.49501 -5.21399 
2826 2 0.906732 -5.68295 -5.39906 
3068 2 0.928702 -4.91752 -5.19476 
2599 1 2.43178 -4.52725 -6.64247 
2298 1 2.09427 -4.54306 -5.65038 
3249 2 3.0351 -4.83504 -5.75293 
2712 1 3.04037 -5.42149 -4.81716 
2933 2 3.32276 -5.59145 -6.05491 
1976 1 4.86369 -4.39518 -5.30443 
2656 1 3.9666 -5.82198 -5.12481 
2051 1 4.09447 -4.94112 -5.24404 
538 1 4.94541 -5.18424 -5.45966 
1373 1 6.15891 -4.99484 -5.62885 
3010 2 6.87873 -4.74015 -4.79395 
3080 2 6.73145 -3.9496 -4.68846 
1673 1 -6.77166 -3.57089 -4.98308 
639 1 -7.08325 -4.11259 -5.81918 
452 1 7.09036 -2.9072 -5.42131 
2737 2 -5.63428 -3.6133 -5.13205 
2248 1 -3.76237 -4.53042 -5.02405 
477 1 -4.66521 -3.2388 -6.18163 
2981 2 -3.15806 -3.91776 -5.99777 
3574 2 -3.12003 -4.68768 -5.8644 
458 1 -2.60013 -4.23254 -4.68043 
1143 1 -2.1891 -4.17519 -5.45427 
2524 1 -2.55329 -3.2682 -5.02804 
995 1 -1.31396 -4.68209 -5.74561 
1643 1 -1.35373 -3.99215 -5.19828 
3227 2 0.396894 -3.35592 -4.7986 
527 1 -0.178921 -3.88027 -5.67692 
954 1 -0.710126 -3.50053 -4.27425 
502 1 0.667947 -3.86604 -6.07226 
2768 2 0.412376 -4.1111 -4.89877 
1425 1 1.37683 -3.33661 -5.78891 
3014 2 3.01564 -4.11044 -5.4579 
2178 1 1.62275 -3.77551 -5.10333 
1472 1 3.71801 -3.28525 -4.861 
85 1 4.92205 -3.7797 -4.8375 
1830 1 5.5684 -3.2297 -5.09026 
1526 1 5.75152 -4.15516 -5.36672 
1320 1 6.3294 -4.1434 -5.93982 
2858 2 6.37117 -2.26986 -4.2584 
1496 1 6.56297 -2.20207 -5.51727 
304 1 -6.65468 -2.25886 -5.69259 
656 1 -6.74748 -2.69857 -4.62952 
2890 2 -5.37733 -2.90021 -5.22807 
2974 2 -5.87884 -2.41084 -5.07043 
2699 1 -4.6498 -2.27497 -6.43504 
2310 1 -4.47022 -3.67861 -4.8576 
647 1 -4.3294 -2.91302 -5.41892 
3061 2 -3.29843 -3.17006 -5.85275 
3041 2 -3.45629 -2.25989 -5.87753 
37 1 -2.62633 -2.34938 -4.84393 
2706 1 -2.26328 -3.22934 -6.0068 
1446 1 -3.3771 -1.63276 -4.49341 
2426 1 -1.65742 -3.29661 -5.20561 
484 1 -0.236304 -2.659 -5.54155 
1484 1 -0.971071 -2.44827 -4.92454 
3430 2 0.301622 -2.60496 -4.69994 
3354 2 0.451983 -1.82772 -4.41025 
1462 1 0.0284655 -3.1968 -6.24583 
644 1 0.676768 -2.70501 -5.78876 
1953 1 1.49964 -3.02705 -4.86052 
84 1 1.36062 -2.18439 -5.12343 
2830 2 2.67939 -3.41277 -5.43864 
3356 2 2.44436 -2.61557 -5.36938 
985 1 3.62586 -2.90816 -5.67502 
1313 1 3.77468 -2.39234 -4.96757 
1034 1 4.55582 -2.96462 -4.9662 
3550 2 4.77243 -2.54974 -5.95815 
148 1 5.19405 -2.472 -4.54547 
2130 1 5.70865 -2.34118 -5.29068 
1872 1 6.50559 -3.32831 -5.65644 
1145 1 6.38811 -1.31069 -5.38734 
2054 1 7.13381 -1.96346 -4.99293 
3267 2 -6.06715 -0.968067 -4.64394 
2132 1 -5.50793 -2.81539 -6.25012 
2993 2 -5.82882 -1.6787 -4.96055 
1835 1 -4.89424 -1.21075 -5.38314 
2869 2 -3.77603 -1.58444 -5.71859 
2844 2 -3.85733 -0.812841 -5.63582 
1581 1 -4.71285 -2.01363 -5.48049 
821 1 -2.41378 -2.24444 -5.75411 
1064 1 -2.49423 -1.59406 -5.30945 
1864 1 -2.81708 -0.868871 -5.03808 
2549 1 -1.78129 -2.51377 -5.19975 
871 1 -1.49839 -1.65933 -5.00545 
1618 1 0.899616 -1.84074 -5.61041 
1380 1 -0.588462 -1.70389 -5.4042 
2105 1 0.294747 -1.40569 -5.48054 
1890 1 1.32447 -1.32256 -4.82506 
2605 1 0.881816 -0.839693 -5.32033 
3557 2 2.46294 -1.7837 -5.12397 
3449 2 2.39158 -1.02968 -5.01058 
110 1 3.54873 -1.53503 -5.39587 
2084 1 3.89534 -1.30972 -4.60557 
840 1 4.21916 -0.434939 -4.32464 
2995 2 4.60907 -0.985718 -5.65723 
2972 2 4.71915 -1.79468 -5.80097 
2211 1 4.57826 -1.83697 -4.65606 
153 1 5.5295 -1.57955 -5.07364 
1466 1 5.63291 -0.709144 -5.09185 
377 1 5.87681 -2.0791 -6.09183 
1301 1 -6.92331 -1.75158 -4.34443 
34 1 6.68938 -0.6865 -4.89001 
806 1 -6.06138 -0.0596731 -5.45884 
1402 1 -6.82804 -0.602216 -5.41133 
2423 1 -5.84187 1.1221 -5.1722 
3186 2 -6.28785 -0.100614 -4.38876 
1841 1 -6.00786 -0.974261 -5.85082 
1551 1 -5.31482 0.379028 -5.09756 
385 1 -5.09766 -0.570062 -4.70357 
3543 2 -4.15402 -0.315919 -5.12331 
2490 1 -3.09647 0.605976 -5.37355 
2077 1 -3.22875 0.223615 -4.47377 
2718 1 -2.9779 -0.161532 -5.5216 
3200 2 -1.5766 -0.950939 -6.05722 
2796 2 -1.84916 -0.0413907 -5.94318 
2601 1 -2.04213 -0.632486 -4.85456 
2395 1 -1.0495 -0.841858 -5.04342 
75 1 0.899423 -0.0123513 -5.55735 
1432 1 1.43819 -0.617211 -5.86683 
1777 1 0.264465 0.966967 -5.15088 
42 1 3.24368 0.71543 -6.01042 
3383 2 2.08257 -0.376226 -5.02889 
1185 1 3.11159 0.258051 -4.91023 
859 1 3.48153 -0.686706 -4.81046 
3317 2 4.37843 -0.297179 -5.43149 
1568 1 5.48905 0.691847 -4.94564 
1548 1 5.15455 -0.149614 -4.64664 
2297 1 6.09811 0.180057 -4.9389 
1882 1 7.04773 0.093757 -4.80449 
1138 1 -6.62847 0.55379 -5.58196 
2151 1 -6.85481 1.34649 -5.90832 
2523 1 -5.22312 1.65661 -5.28282 
1584 1 -6.4368 2.00884 -5.39972 
2560 1 -4.38052 1.34743 -6.05517 
2690 1 -5.5959 2.01807 -4.62897 
1793 1 -5.1645 1.12555 -4.43971 
3256 2 -4.21712 0.533045 -4.99394 
1238 1 -3.08286 1.6742 -5.27972 
3144 2 -4.07209 1.30685 -4.87266 
1268 1 -2.16906 0.170025 -4.6785 
2846 2 -2.11818 1.55656 -5.56968 
2037 1 -0.73478 1.03569 -5.61356 
2939 2 -2.01454 0.729868 -5.71025 
1880 1 -1.2792 0.933134 -4.90933 
2708 1 -1.02113 1.99414 -5.68081 
400 1 -1.01082 0.0138755 -5.07265 
549 1 -0.133767 0.265032 -5.46793 
76 1 2.06163 1.35589 -5.72053 
1374 1 1.07091 0.765581 -5.52614 
3443 2 1.94867 0.338628 -4.75068 
2575 1 3.04408 1.35617 -4.6029 
175 1 2.814 1.04327 -5.36823 
2848 2 4.08129 0.549072 -5.29856 
3364 2 4.17021 1.25033 -5.42547 
2327 1 4.81577 0.74061 -4.35718 
3038 2 6.21804 1.48644 -5.80593 
1151 1 7.13742 0.941928 -5.07893 
3060 2 6.31535 2.2973 -5.76062 
817 1 6.85402 0.743973 -3.99982 
412 1 -6.46742 2.81258 -5.20591 
408 1 -5.37313 2.5512 -5.503 
2861 2 -4.29308 2.13531 -4.80535 
3062 2 -4.51669 2.93179 -4.61258 
668 1 -4.0118 2.45934 -5.89463 
1669 1 -4.3545 3.2861 -5.69884 
1986 1 -3.42115 2.67909 -5.1403 
2436 1 -3.33108 3.15204 -4.44714 
3117 2 -2.13919 2.38901 -5.27608 
28 1 -1.12349 1.72434 -4.78142 
561 1 -1.09463 2.52741 -4.86229 
3444 2 -0.137881 3.19418 -5.8092 
1257 1 -0.221934 1.70471 -5.0532 
221 1 0.91315 1.70779 -5.39167 
1375 1 0.565814 2.35754 -4.88061 
1713 1 1.87611 2.19345 -5.70471 
2271 1 2.25269 2.92982 -5.21029 
171 1 2.62378 2.07072 -5.1691 
530 1 2.92459 3.15502 -5.67269 
970 1 2.6417 2.50239 -4.3811 
3388 2 3.87564 1.82938 -5.09408 
3433 2 3.73397 2.63157 -4.83688 
941 1 5.23733 1.42249 -5.30326 
2584 1 4.6422 1.47688 -4.27941 
1939 1 4.80318 2.33101 -4.41738 
92 1 6.977 2.65691 -4.87496 
1335 1 7.06769 1.87511 -5.0994 
3414 2 5.85422 2.84338 -5.64114 
13 1 6.22931 2.56472 -4.61173 
896 1 -6.80093 3.5628 -5.20448 
2376 1 -4.7924 5.04785 -5.37444 
2200 1 -5.07244 3.41382 -5.89092 
732 1 -3.05157 3.38179 -6.10775 
2495 1 -3.57958 3.4658 -5.30205 
1543 1 -4.46697 4.15774 -5.38347 
2945 2 -2.34158 3.07429 -5.14815 
2977 2 -2.37446 3.89201 -4.98898 
2647 1 -1.22082 3.17892 -5.53081 
353 1 -1.35653 4.38173 -6.34897 
1499 1 -1.33581 3.90525 -5.24071 
2813 2 -0.417621 3.9713 -6.00253 
1521 1 0.480913 3.21356 -5.03778 
3378 2 -0.489111 4.64886 -5.63476 
482 1 1.58395 4.57199 -5.2691 
2176 1 1.62244 3.60895 -5.27042 
1639 1 2.60267 3.78687 -5.03075 
1997 1 2.87113 4.06517 -5.95957 
1614 1 2.49074 3.3013 -4.38031 
3013 2 3.39941 4.31895 -4.59227 
2894 2 3.67731 3.46388 -4.72987 
825 1 3.83085 4.19925 -5.62529 
2703 1 4.68519 3.18125 -5.19841 
3298 2 5.71469 3.79882 -5.46588 
2917 2 5.615 4.48756 -5.32649 
1760 1 6.89385 3.31228 -5.85133 
1169 1 6.66181 3.47212 -4.93254 
2209 1 -6.44345 4.24007 -4.80655 
3147 2 -6.78599 5.24999 -5.72896 
3330 2 -7.05115 6.19635 -5.63074 
120 1 -6.17522 5.53223 -4.99696 
822 1 -5.42961 5.73689 -5.44213 
1255 1 -3.88927 4.85229 -5.23186 
803 1 -4.52318 5.93155 -5.06161 
928 1 -5.56373 4.73699 -5.30805 
358 1 -3.63807 4.12876 -4.74456 
2466 1 -3.73992 5.94179 -5.28611 
101 1 -4.03456 5.12236 -4.52292 
2865 2 -2.64422 4.76346 -4.84439 
3458 2 -2.84939 5.45273 -4.61958 
883 1 -1.83072 4.73505 -5.66365 
197 1 -0.485326 4.28781 -4.74646 
786 1 -1.26489 4.82047 -4.88555 
3392 2 -0.557176 5.40032 -5.42966 
849 1 0.418057 5.4006 -5.93437 
2038 1 0.902434 4.958 -5.27276 
301 1 0.115169 3.90437 -4.40024 
1763 1 0.368399 4.27171 -5.18488 
1709 1 1.44879 5.65437 -4.91996 
614 1 2.3723 4.52201 -5.34171 
295 1 3.35721 5.05334 -5.60841 
665 1 3.18469 6.14282 -5.48529 
1390 1 4.22891 4.95992 -4.72135 
686 1 4.1285 5.08602 -5.56901 
2927 2 5.41712 5.19314 -5.08278 
3257 2 5.0892 5.82393 -4.83321 
2541 1 6.95012 4.14761 -5.5373 
612 1 7.17515 5.10708 -4.77764 
462 1 6.46565 5.06112 -5.54897 
2747 2 -6.92902 7.08437 -5.43327 
1490 1 -6.42198 7.01588 -4.49001 
1318 1 -5.08531 6.64629 -5.11926 
297 1 -6.7574 6.16141 -4.40946 
1060 1 -5.94865 6.42412 -4.83414 
2275 1 -4.10324 6.86012 -5.23226 
361 1 -4.26796 6.89472 -4.15857 
658 1 -2.07147 6.94381 -5.80971 
1030 1 -2.54666 6.07576 -5.6631 
1235 1 -3.52856 6.29773 -6.04276 
1652 1 -1.2693 6.51893 -6.88464 
2626 1 -1.81595 5.47358 -5.26907 
3018 2 -0.87849 6.91222 -5.26336 
3207 2 -0.734933 6.11353 -5.14542 
512 1 0.394981 5.92252 -4.91289 
1175 1 2.22658 7.13028 -4.80319 
2978 2 1.31506 -7.15586 -5.39994 
27 1 2.06281 5.93627 -3.90022 
1629 1 1.19896 6.68088 -4.55367 
1249 1 2.0014 6.13755 -4.7876 
245 1 2.38325 -6.83453 -5.87557 
2256 1 2.37995 6.58952 -5.41876 
1295 1 4.43463 7.06973 -5.60867 
1422 1 4.28112 5.92649 -5.67002 
2028 1 4.04111 5.89544 -4.82847 
1513 1 3.73398 6.70092 -5.30642 
1927 1 6.10768 5.88497 -6.1117 
2971 2 5.21357 6.74969 -4.96018 
2926 2 4.9514 -6.87757 -4.63669 
1667 1 6.30486 6.87829 -5.22334 
2539 1 6.16985 5.91757 -5.14439 
1312 1 -6.58381 -6.53149 -4.36629 
1893 1 -6.65964 -5.48672 -4.40606 
1530 1 6.87107 -6.43962 -4.06969 
3469 2 -5.80114 -6.02276 -3.42527 
3545 2 -5.57563 -6.67364 -3.75918 
1609 1 -4.39917 -5.78496 -4.79433 
1232 1 -4.51671 -6.72404 -3.89098 
3413 2 -3.50574 -5.92807 -4.10406 
278 1 -4.48941 -5.99077 -3.25886 
2835 2 -3.50487 -6.64318 -4.39963 
1252 1 -2.82034 6.92869 -3.48006 
1344 1 -2.51022 -5.93532 -5.01404 
2033 1 -2.69225 -6.42399 -3.42308 
180 1 -2.14967 7.06467 -4.14856 
356 1 -2.41752 -6.47967 -4.27442 
945 1 -1.36887 -7.09428 -4.04469 
811 1 -0.354548 6.94938 -4.07049 
1945 1 -0.296498 -6.52452 -4.24982 
2969 2 0.462099 -6.5987 -3.44745 
2096 1 0.758627 -6.69499 -4.49312 
3236 2 0.684085 7.1024 -3.53408 
1382 1 1.62101 -6.6684 -4.39784 
1992 1 1.76533 -5.76157 -4.51095 
2168 1 1.67535 -6.86761 -3.53862 
1416 1 2.06347 -5.24031 -5.02839 
3303 2 2.69968 -6.26414 -4.09492 
3497 2 2.82737 -7.05666 -4.0056 
1160 1 3.43952 -6.59489 -3.20454 
2315 1 3.81237 -6.26626 -4.23459 
189 1 4.06857 -7.05211 -3.99813 
3290 2 4.84181 -6.16716 -4.45923 
492 1 4.52878 -5.62885 -3.17726 
2571 1 5.66058 -5.70269 -3.56764 
2288 1 5.95579 -6.43605 -4.09003 
2162 1 -6.92566 -5.872 -3.66047 
2106 1 -5.76474 -5.07721 -4.54741 
1013 1 -6.92618 -4.61945 -3.96635 
2332 1 -4.73773 -5.09808 -3.41814 
138 1 -5.01007 -5.24625 -4.16235 
3562 2 -3.78163 -5.12615 -3.92186 
3536 2 -3.99562 -4.30665 -3.85155 
2672 1 -4.7726 -6.00753 -4.10884 
104 1 -2.44593 -5.50103 -3.97316 
1836 1 -1.77248 -6.16607 -3.80956 
1810 1 -0.646128 -5.81533 -3.96614 
3480 2 -1.70999 -4.6927 -4.28469 
2102 1 -0.626533 -4.31217 -4.48054 
2113 1 2.05424 -4.38928 -4.69726 
1799 1 1.0257 -5.92032 -4.33806 
2067 1 1.52638 -6.03568 -3.40799 
1863 1 1.43629 -4.90346 -4.21779 
2918 2 2.5191 -5.53884 -3.84703 
3379 2 2.4686 -4.85182 -3.58587 
281 1 3.72378 -5.09481 -4.42845 
1653 1 3.66936 -4.76077 -3.6437 
2075 1 5.58176 -4.88241 -3.57575 
3340 2 4.60379 -4.65107 -4.18754 
2825 2 4.86717 -5.35483 -4.26721 
126 1 5.26892 -4.20475 -3.257 
2721 1 5.66236 -4.8597 -4.76496 
1000 1 6.55603 -5.63579 -3.89776 
317 1 6.01162 -5.76108 -4.66914 
1994 1 7.07206 -5.06788 -3.41356 
2269 1 -6.49118 -4.38545 -5.00685 
844 1 -6.39344 -3.45973 -4.33899 
2109 1 -6.95536 -3.63445 -3.89221 
1999 1 -6.0077 -4.26841 -4.23196 
2350 1 -5.09445 -4.26849 -3.45269 
1733 1 -4.79673 -3.13154 -4.23059 
2388 1 -5.10932 -4.31284 -4.30306 
3376 2 -4.02459 -3.56168 -3.66451 
1728 1 -2.91113 -4.40752 -3.95973 
1470 1 -2.89856 -3.21981 -4.268 
3285 2 -1.76223 -3.87646 -4.21399 
2916 2 -1.68729 -3.0214 -4.04682 
139 1 -0.736854 -3.37187 -5.17578 
1468 1 -0.738918 -4.84087 -3.75533 
635 1 0.487772 -5.17311 -4.1846 
851 1 -0.823996 -4.07977 -3.41764 
1069 1 0.0623377 -4.49736 -3.92953 
250 1 1.41295 -3.95086 -4.28913 
607 1 1.30559 -3.11393 -3.98856 
2306 1 2.95597 -4.43759 -4.40636 
1073 1 2.36634 -3.58161 -4.36545 
3230 2 2.25042 -4.18429 -3.41213 
388 1 3.68488 -4.20622 -4.75359 
1075 1 3.28406 -3.72172 -3.95976 
3244 2 4.47571 -3.87169 -3.81995 
2857 2 4.28018 -3.13867 -3.84764 
2552 1 5.58746 -4.18674 -4.32978 
1493 1 5.46354 -3.20027 -4.19827 
2239 1 5.01242 -3.27995 -2.8632 
3173 2 6.46374 -3.19668 -4.47216 
2695 1 6.23575 -4.80748 -4.05984 
423 1 5.80009 -3.50322 -3.41867 
1707 1 -7.0822 -2.69906 -3.83345 
1325 1 7.13587 -1.97962 -3.45897 
1144 1 -6.21071 -2.71536 -3.86512 
56 1 -5.378 -2.31687 -4.02672 
587 1 -5.62184 -3.45185 -4.04075 
172 1 -3.75754 -2.70291 -4.60998 
3083 2 -3.94644 -2.77233 -3.57088 
3229 2 -4.30538 -2.11434 -3.5668 
904 1 -2.6279 -3.63249 -3.44393 
1979 1 -3.57194 -3.63853 -4.8077 
195 1 -2.9203 -2.51015 -3.79694 
1611 1 -0.0135787 -3.68883 -3.70634 
3198 2 -1.97595 -2.30366 -4.02026 
2766 2 -2.20226 -1.48371 -3.92862 
1431 1 0.0222926 -2.72158 -3.58856 
1946 1 1.60929 -1.88949 -4.16169 
2044 1 0.692513 -3.50512 -3.46424 
891 1 3.13676 -2.87408 -4.48283 
879 1 3.24332 -1.93677 -4.42167 
535 1 2.21657 -2.79778 -4.2655 
236 1 2.83472 -1.90401 -3.18162 
349 1 2.8604 -2.71765 -3.63007 
3353 2 3.99676 -2.35094 -3.6289 
3134 2 3.81393 -1.43606 -3.52485 
190 1 5.32181 -2.69105 -3.43513 
1299 1 5.0602 -1.93166 -3.70221 
3116 2 6.08482 -1.54746 -4.12774 
2225 1 6.78861 -2.31258 -2.74776 
2856 2 6.05997 -0.76455 -3.97206 
874 1 6.64964 -3.0496 -3.39808 
863 1 -6.14144 -1.75153 -3.71845 
90 1 7.20593 -0.946899 -4.33163 
960 1 -6.42815 -0.837379 -3.47916 
517 1 -5.59256 -1.54026 -3.25227 
1572 1 -4.91967 -1.56521 -4.33756 
808 1 -4.22462 -1.55668 -4.73107 
2309 1 -4.59853 -2.35381 -4.62688 
572 1 -3.88504 -1.06053 -4.07078 
2674 1 -3.23145 -0.638014 -4.46491 
2638 1 -3.43298 -0.654763 -3.30872 
2748 2 -2.34259 -0.692039 -3.76273 
481 1 -3.18679 -1.66569 -3.48384 
2237 1 -0.895812 -1.73372 -4.35053 
128 1 -0.686495 -2.49113 -4.0204 
2241 1 -1.18731 -0.939422 -3.98561 
3585 2 -0.051746 -1.26594 -4.28872 
2020 1 -0.0907969 -1.8934 -3.41542 
1296 1 0.575235 -0.612512 -3.43994 
858 1 -0.781915 -1.24967 -3.32741 
971 1 1.98986 -0.983868 -3.99181 
202 1 1.14166 -1.47779 -3.60934 
247 1 1.26426 -0.478022 -3.78066 
984 1 0.973435 -2.4632 -3.6968 
169 1 2.44079 -1.89112 -3.94975 
1337 1 2.96318 -1.12195 -4.15447 
2914 2 3.73958 -0.478451 -3.37471 
1703 1 4.77424 -1.01904 -3.61454 
2352 1 4.92598 -0.996907 -4.43022 
1275 1 4.64088 0.0936897 -2.75886 
2902 2 5.86582 -0.000497349 -3.82879 
2296 1 -5.79728 0.372189 -2.79672 
3263 2 -6.38284 0.704363 -4.45068 
319 1 -6.48507 0.169557 -3.33024 
1627 1 -5.6671 -0.242354 -3.28813 
1428 1 -5.38119 -1.08973 -3.82133 
2302 1 -5.30452 0.106789 -4.05503 
1248 1 -3.85119 -0.266364 -4.03758 
111 1 -4.66566 -0.61002 -4.01417 
827 1 -3.72653 0.585523 -3.60149 
2789 2 -2.47915 0.0439313 -3.58858 
3490 2 -2.53115 0.774325 -3.29711 
2108 1 -1.36729 -0.040053 -4.21147 
3500 2 0.0446228 -0.444658 -4.36642 
3555 2 -0.38384 0.175126 -4.19561 
1531 1 1.0845 -0.494466 -4.50928 
506 1 1.61358 0.318961 -3.74978 
692 1 0.282075 0.20393 -3.13054 
2722 1 3.12237 -0.277136 -4.12789 
922 1 2.4728 -0.0263262 -3.69935 
583 1 2.83277 0.697292 -4.09742 
3483 2 3.61957 0.188783 -3.05028 
296 1 3.85648 0.509229 -4.31436 
3305 2 3.44043 0.920978 -3.16041 
1520 1 4.74612 -0.153221 -3.79627 
1575 1 7.10122 -0.104431 -3.88461 
2819 2 5.68427 0.808477 -3.78606 
3209 2 5.64793 1.52342 -3.72546 
3260 2 -6.50683 1.35481 -4.34709 
35 1 -5.78836 1.80169 -3.61884 
1343 1 -4.521 0.449441 -3.89125 
1913 1 -5.59197 0.915901 -3.68988 
2278 1 -4.96699 1.83068 -3.95355 
882 1 -3.36713 1.22143 -4.00134 
1316 1 -4.25341 1.28131 -3.82041 
1483 1 -3.25673 2.20994 -4.30156 
969 1 -2.68355 1.09177 -4.55989 
1783 1 -3.80809 2.07885 -3.62153 
2030 1 -1.75531 1.90689 -4.25035 
3588 2 -2.67895 1.62656 -3.13631 
1971 1 -1.73775 0.996132 -4.2347 
3196 2 -0.661507 1.82088 -3.74748 
14 1 -1.39598 0.675348 -3.57841 
2489 1 0.862052 0.336647 -4.80375 
2950 2 -0.404607 0.949861 -4.03279 
2013 1 0.726124 0.498099 -3.83428 
1700 1 1.43183 1.178 -3.59374 
2406 1 0.685543 1.1941 -4.44006 
3241 2 1.81269 1.12798 -4.69007 
1501 1 1.94202 1.93179 -3.35525 
613 1 2.34491 1.11541 -3.51878 
81 1 4.45408 1.48147 -3.28868 
1364 1 3.81552 1.38659 -4.18113 
2223 1 4.59107 0.671754 -3.53616 
763 1 4.2992 1.00336 -2.38727 
3369 2 5.51457 2.34484 -3.42707 
523 1 6.35738 1.04513 -4.78322 
1622 1 6.37364 0.852397 -3.05337 
829 1 6.69639 1.69866 -4.34196 
3033 2 -6.66644 2.03455 -4.15681 
2751 2 -6.80973 2.85955 -3.99741 
2010 1 -5.50271 3.75972 -5.20507 
1607 1 -5.68782 2.78671 -4.6206 
978 1 -4.66839 2.61787 -3.48555 
2597 1 -6.05759 2.6436 -3.02248 
683 1 -3.71608 2.96697 -3.73927 
2529 1 -2.55095 1.94063 -4.26841 
2592 1 -1.83188 2.50245 -3.58968 
1002 1 -1.52169 2.38886 -2.73169 
46 1 -1.5058 2.91664 -4.3195 
2860 2 -0.705305 2.592 -3.65903 
2442 1 0.440585 2.07508 -4.08924 
867 1 -0.173476 2.59817 -4.74408 
30 1 0.493404 2.66931 -3.25452 