ITEM: TIMESTEP
11900
ITEM: NUMBER OF ATOMS
3594
ITEM: BOX BOUNDS pp pp pp
-7.2018667131691902e+00 7.2018667131691902e+00
-7.2018667131691902e+00 7.2018667131691902e+00
-7.2018667131691902e+00 7.2018667131691902e+00
ITEM: ATOMS id type x y z 
1148 1 -7.01995 -7.07896 -6.57099 
1616 1 -6.98016 -6.2604 -6.36012 
1282 1 -5.89052 -7.10991 -6.63429 
3477 2 -4.91885 6.92975 -6.05407 
601 1 -4.94754 -6.34347 -6.99608 
2122 1 -3.83022 -5.84459 -7.21315 
2058 1 -4.22282 -6.21384 -6.55238 
1246 1 -4.41117 -5.29587 -6.78121 
1465 1 -4.33001 -4.69391 -6.10629 
3454 2 -2.66869 7.13636 -6.57019 
2627 1 -1.74056 -5.86909 -5.85323 
3268 2 -2.89682 -6.48827 -6.86742 
2238 1 -1.81332 -6.02066 -6.89532 
448 1 -0.776566 -6.30596 -6.07432 
26 1 -1.51244 -6.64818 -6.41702 
3368 2 -0.477339 -6.4315 -7.04854 
1088 1 0.294932 -7.10196 -6.41835 
1702 1 -0.729524 7.09234 -6.13605 
1966 1 0.394606 -5.96595 -6.83278 
1905 1 1.02534 -6.91272 -6.628 
40 1 2.00943 -6.01566 -6.28637 
1634 1 2.65301 -5.9509 -6.85047 
245 1 1.85962 -6.77032 -6.41567 
3442 2 3.33008 7.14785 -6.226 
589 1 4.36635 -7.0312 -6.32054 
3208 2 5.49938 -6.74335 -6.89898 
2812 2 5.21753 -6.05605 -6.57154 
329 1 4.68359 -5.86213 -5.66013 
112 1 6.37755 -6.07304 -5.94248 
274 1 6.54145 -6.89336 -6.34986 
1258 1 6.62249 -6.13814 -6.72803 
558 1 -5.86625 -6.28647 -6.87147 
3495 2 -6.82719 -4.45957 -7.00104 
1459 1 -5.70779 -5.25805 6.92755 
1918 1 -4.97597 -4.68407 -6.676 
2023 1 -5.26025 -5.49225 -6.82149 
606 1 -3.57129 -5.00663 6.96469 
1087 1 -3.04121 -4.18257 -7.13352 
1071 1 -4.26451 -4.01381 -5.34538 
2944 2 -2.91092 -5.85475 -6.51983 
3574 2 -3.0596 -5.10478 -6.34107 
722 1 -1.94316 -3.60338 -7.0761 
3019 2 -0.74776 -5.61983 -7.05632 
2139 1 -1.88898 -5.2186 -6.35644 
594 1 -1.84945 -5.04955 7.03627 
685 1 0.4512 -6.08009 6.52607 
1582 1 0.0467592 -5.37055 -6.23771 
579 1 1.08865 -5.92953 -6.50771 
480 1 2.1184 -5.50688 -4.77703 
271 1 0.367893 -5.30205 7.07539 
2379 1 2.09126 -5.0726 -6.67061 
2957 2 3.31356 -6.41062 -5.96792 
2590 1 3.09723 -5.12079 -7.12714 
1695 1 3.75622 -4.68654 -6.74121 
628 1 4.17634 -5.92791 -6.43422 
2407 1 3.99901 -4.09207 -6.13562 
645 1 4.15722 -5.25119 -6.97521 
638 1 4.60215 -5.87263 6.82333 
3212 2 5.43326 -5.30951 -6.49488 
3266 2 5.1442 -4.6224 -6.2758 
802 1 6.27774 -4.24661 -6.77738 
10 1 6.88206 -5.21539 -6.29087 
2348 1 6.36472 -5.12856 -7.07764 
1954 1 -6.79535 -5.51103 -5.9819 
3029 2 -7.18145 -3.73409 -6.93756 
659 1 -5.86385 -4.5546 -6.43532 
2045 1 -5.78795 -3.62787 -6.60412 
472 1 -5.24503 -2.81716 -6.15663 
1671 1 -4.91152 -3.86138 -6.33131 
923 1 -3.90927 -4.4133 -7.03162 
386 1 -2.21681 -4.37829 -6.78449 
909 1 -2.15873 -4.44756 -5.78162 
520 1 -2.28464 -3.67701 -6.25573 
1315 1 -3.04544 -2.22018 -6.93718 
2981 2 -3.32466 -4.42344 -6.11131 
3484 2 -0.889196 -4.83876 -6.82994 
2808 2 -1.0086 -4.16096 -6.59629 
1940 1 0.503078 -4.36879 6.3386 
502 1 -0.192016 -3.61915 -6.72282 
1462 1 -0.131518 -4.28047 6.95517 
2589 1 1.20131 -4.88291 -6.3607 
1425 1 1.29044 -4.19748 -5.88087 
1168 1 3.06645 -3.97517 -6.77736 
2599 1 2.05034 -4.3156 -6.30501 
2287 1 2.3662 -3.4899 7.15507 
2631 1 4.40041 -4.21827 -7.17358 
1385 1 4.22381 -3.66262 -5.4535 
2767 2 4.9897 -3.86824 -6.3758 
1362 1 5.39578 -3.79798 6.96925 
1788 1 6.37299 -3.56093 -6.14508 
1320 1 7.13252 -3.53404 -5.67502 
2510 1 -6.08193 -1.92744 6.50066 
670 1 -6.14989 -2.71336 -6.02614 
2132 1 -5.60995 -1.86006 -5.98744 
1800 1 -4.18314 -3.52263 -6.64468 
2699 1 -4.24949 -2.70133 -6.43121 
1001 1 -3.95436 -2.29446 -6.98545 
1445 1 -2.32413 -1.72621 -6.97536 
1370 1 -2.31984 -2.71482 -6.61723 
1822 1 -2.13217 -1.22185 6.34874 
821 1 -2.70151 -1.00094 -6.48455 
3332 2 -1.29195 -3.36287 -6.4891 
3234 2 -1.10357 -2.44979 -6.55461 
2368 1 -0.119536 -2.24653 -6.72352 
644 1 -0.410728 -3.03447 -7.21243 
1767 1 1.53925 -3.32035 -5.67673 
3503 2 0.933037 -3.11222 -7.16154 
1738 1 2.87536 -3.12254 -6.53844 
1635 1 1.99187 -2.66018 -7.0731 
799 1 2.04776 -3.3679 -6.3569 
2183 1 3.83874 -3.43479 -6.76359 
1806 1 4.1933 -2.73075 -6.94648 
985 1 3.71398 -2.92312 -6.04018 
2530 1 6.2043 -2.18832 7.08429 
3550 2 4.89196 -3.10392 -6.20515 
2975 2 7.13905 -2.95694 -6.7591 
3126 2 6.90204 -2.12471 -6.51559 
734 1 5.92789 -2.61201 -6.5607 
194 1 -6.24444 -1.19065 -6.04797 
1207 1 -6.54786 -1.93336 -5.55693 
3360 2 -5.34455 -1.22863 -6.90747 
2578 1 -4.17205 -1.54246 -6.77003 
1514 1 -4.78831 -1.59306 -5.37188 
2195 1 -4.28271 -1.61963 6.68169 
2641 1 -4.27665 -0.785142 -6.32241 
911 1 -3.33375 -1.36445 -6.66572 
1815 1 -1.92206 -1.03226 7.18228 
1106 1 -1.0795 -0.595679 -7.17175 
3105 2 -1.34824 -1.7784 -6.30721 
2381 1 -0.584179 -0.99666 -6.40582 
2480 1 -0.322956 -1.15336 -5.58355 
886 1 2.17987 -0.995985 -6.37854 
1837 1 1.75129 -0.444459 -6.89088 
2804 2 1.00341 -1.65868 -6.81094 
3347 2 0.8988 -2.40476 -6.83853 
2390 1 1.5559 -2.54839 -6.13154 
925 1 2.37954 -2.33402 -6.35067 
1587 1 2.09558 -1.73003 -7.02677 
2500 1 3.35995 -2.35816 -6.45293 
2617 1 3.69266 -1.31205 -6.46129 
483 1 4.99989 -1.29946 -6.96983 
2068 1 5.38602 -0.975751 -5.96888 
377 1 5.69818 -1.84651 -6.26 
3087 2 6.85088 -1.41035 -6.12961 
2840 2 6.45155 -0.727262 -6.37627 
1414 1 5.86275 -1.35864 -7.03349 
1340 1 -6.74124 -0.459591 -6.49086 
1138 1 -6.67346 0.353706 -7.22486 
3097 2 -5.64277 -0.563846 -6.82601 
3127 2 -5.60823 0.17456 -6.6042 
443 1 -4.8073 -0.231161 -5.91757 
83 1 -4.75212 -2.012 -6.1837 
2677 1 -3.46709 -0.54826 -6.38649 
499 1 -4.55369 0.327983 -6.88249 
1928 1 -2.79126 -0.394402 -5.63781 
395 1 -2.51159 -0.176668 -6.67168 
1074 1 -0.673753 0.798846 -5.61005 
1457 1 -1.87216 0.209668 -7.00986 
3200 2 -1.69008 -0.980377 -6.04481 
2796 2 -1.58777 -0.138463 -6.04658 
1993 1 -0.562881 -0.143728 -6.03342 
3151 2 0.586389 -1.00895 -6.67757 
3088 2 0.436659 -0.309938 -6.37824 
2558 1 1.48622 0.280334 -7.10716 
1432 1 1.43447 -0.63528 -5.9194 
1859 1 2.92971 -1.57774 -6.16607 
1834 1 3.59953 0.302846 -6.08745 
2960 2 2.73936 0.236867 -6.98108 
3195 2 2.88748 -0.508478 7.09539 
2535 1 3.35303 -0.501902 -6.41168 
873 1 4.15364 -0.328876 -6.65856 
42 1 3.87367 0.648594 -6.80721 
2086 1 5.17539 -0.475799 -6.62082 
234 1 5.46251 0.138802 -5.78928 
2797 2 6.59866 0.0860934 -6.17315 
3135 2 6.66891 0.842693 -5.88821 
3007 2 -5.75359 0.928441 -6.62543 
3140 2 -5.93391 1.69304 -6.45534 
1670 1 -4.71051 1.05082 6.89669 
519 1 -4.25295 0.858511 6.26226 
3148 2 -3.52542 1.03326 -7.26849 
2560 1 -4.30088 1.70361 -5.9794 
2300 1 -3.99547 0.202478 -6.14496 
580 1 -2.97305 0.515722 -6.31658 
1965 1 -1.78578 1.87226 -6.4468 
337 1 -2.7535 1.42136 -6.42521 
1116 1 -1.05177 1.65526 -5.78428 
1265 1 -1.11337 1.06228 -6.52114 
1353 1 -0.872317 2.18554 -6.64094 
3311 2 0.36256 0.489393 -6.26962 
2928 2 0.112706 1.31107 -6.16458 
1368 1 1.09042 1.29646 -7.07062 
693 1 1.58087 1.02973 6.64451 
3459 2 2.6532 0.941462 -7.12911 
175 1 3.20493 1.08619 -6.02828 
2231 1 3.24476 2.31409 -6.67389 
2380 1 3.71062 1.52343 -6.50311 
50 1 4.16817 2.16993 -6.04178 
1176 1 4.62611 1.30024 -6.13794 
850 1 4.61448 0.498294 -6.45955 
1455 1 -6.98105 1.1464 6.98659 
263 1 6.43989 0.923084 -7.08549 
2637 1 5.61793 1.62294 -6.59136 
3465 2 -6.06805 2.39514 -6.18326 
2305 1 -7.14157 1.99225 -6.77818 
577 1 7.16927 2.73138 -6.5082 
1410 1 -4.78818 2.6086 -7.20819 
2386 1 -5.4014 3.14617 -6.75898 
1224 1 -4.91833 1.66323 -6.84737 
1233 1 -6.23198 3.43659 -6.97442 
3093 2 -3.93529 1.72578 -6.97872 
2783 2 -3.68874 2.40505 -7.0026 
1933 1 -2.10306 2.65018 -6.26049 
2505 1 -2.71243 3.2368 6.248 
1833 1 -3.05081 2.11857 -6.23002 
732 1 -3.32938 2.97377 -5.90166 
855 1 -0.507165 2.90756 -7.14743 
1932 1 -1.0362 3.14768 -6.38126 
902 1 -0.550131 1.21681 -7.03229 
474 1 -0.621405 2.64862 6.37845 
3078 2 0.0340272 2.08436 -5.93925 
1525 1 -0.149331 2.09258 -7.201 
1817 1 0.260446 3.77556 -6.69943 
673 1 0.269865 2.83268 -6.81565 
1516 1 0.958178 2.04504 -6.62724 
3393 2 2.22995 1.55316 -6.82607 
3417 2 2.20363 2.41799 -6.54222 
268 1 3.49293 2.65306 -5.97992 
2711 1 4.50171 2.94313 -5.76387 
1286 1 2.99736 3.21266 -6.85486 
2414 1 4.82235 3.29582 -5.08737 
2066 1 5.23141 3.11046 -6.32984 
2092 1 5.04299 2.1208 -6.17456 
2072 1 6.43606 1.74475 -6.72134 
1883 1 6.23692 2.88365 -6.50538 
2736 2 -6.17197 3.00643 -5.92381 
3238 2 -6.47292 3.79842 -5.81438 
402 1 7.13168 3.5164 -6.7844 
2685 1 -4.77252 3.18529 -5.85236 
718 1 -5.56217 3.88097 -6.4457 
3408 2 -3.92154 3.19994 -6.71295 
3411 2 -4.19399 3.87031 -6.60349 
488 1 -2.77356 3.06692 -6.96046 
1264 1 -3.07487 2.33893 6.5976 
1102 1 -3.06483 4.52323 -6.35524 
3098 2 -2.0138 4.45127 -7.13835 
1623 1 -0.713604 3.91326 -6.7749 
353 1 -1.38244 4.32861 -6.09876 
586 1 -0.181418 4.65267 -6.49513 
1486 1 0.643145 4.71733 -6.06899 
2429 1 0.703627 3.79829 -5.86361 
3466 2 1.81165 4.00759 -6.28606 
3478 2 1.91717 3.1789 -6.38748 
486 1 2.97549 4.07366 -6.62396 
1346 1 2.20658 4.29518 7.09744 
1113 1 2.64147 3.83625 -5.4746 
785 1 3.08459 3.29794 -5.92707 
1066 1 3.87767 3.64293 -5.6229 
3551 2 4.16658 3.69007 -6.98673 
3223 2 4.06369 4.38339 -6.66346 
908 1 4.84583 4.01104 -6.06004 
2377 1 5.07268 4.14789 7.13439 
131 1 6.5727 3.6367 -6.14289 
889 1 5.80495 3.89123 -6.38578 
1760 1 6.94031 3.36875 -5.51271 
1594 1 -6.45054 5.44216 -6.57607 
1631 1 -6.43244 4.31387 -6.85126 
585 1 7.07351 5.43722 6.96744 
2191 1 -5.49691 4.73392 -7.04846 
1697 1 -5.56328 5.56245 -6.66316 
3471 2 -4.42551 4.64583 -6.40916 
343 1 -3.05125 3.80756 -6.85794 
3306 2 -2.40113 5.14464 -7.0281 
1394 1 -2.86415 5.54695 -5.84844 
2839 2 -2.29698 5.80867 -6.8761 
1230 1 -0.947198 4.73991 -6.85001 
741 1 -1.22495 6.31897 7.06999 
883 1 -1.88327 5.14173 -5.7589 
2630 1 -0.614377 5.97987 -6.66826 
1685 1 0.22946 5.38652 -6.50982 
1744 1 -1.20674 5.43353 -6.34382 
2000 1 0.974123 4.29457 -6.90142 
3138 2 1.67154 4.91572 -6.22153 
2831 2 1.43629 5.76977 -6.05173 
2415 1 2.03016 6.84106 -6.73753 
1689 1 2.74608 4.96881 -6.14024 
862 1 2.23766 6.4121 -6.02839 
215 1 2.44941 5.79167 -6.66682 
2790 2 3.87465 5.1183 -6.79594 
865 1 4.65207 6.03515 -5.74111 
255 1 4.87958 5.02963 7.05433 
1247 1 4.69578 5.19821 -5.65724 
2172 1 5.27666 4.67486 -6.39134 
141 1 6.68274 4.44951 -6.09279 
365 1 -7.16545 4.78586 -6.79588 
115 1 6.84152 5.6265 -6.56257 
2662 1 -6.35657 6.57302 -6.4914 
1772 1 -5.54141 -7.14902 -4.94846 
1413 1 -6.95762 6.31122 -7.07081 
2396 1 -5.49012 6.48522 -6.96743 
1396 1 -6.12542 -7.18219 -5.61661 
2437 1 -4.68202 5.75754 6.98584 
3150 2 -4.48623 6.25361 -6.21159 
3463 2 -4.48018 5.50379 -6.31278 
2576 1 -3.47816 5.00616 -6.85593 
1235 1 -3.60202 6.64643 -6.54139 
2832 2 -2.20688 6.46815 -6.47562 
345 1 -1.18207 6.45538 -6.26257 
798 1 0.0453053 6.50323 -6.34832 
1652 1 -1.4561 7.12555 -7.04137 
1435 1 0.168245 6.87155 -5.65384 
1308 1 0.607455 6.11965 -6.8488 
1261 1 1.54179 6.05671 -7.08141 
1333 1 1.13983 6.89128 -7.10802 
3587 2 3.37099 6.45411 -6.43848 
3569 2 3.86993 5.87651 -6.48229 
2787 2 5.75828 6.84667 -7.15716 
2594 1 5.35361 6.87053 -5.87804 
1927 1 6.04855 5.18337 -6.2589 
795 1 5.08905 5.53778 -6.3732 
1879 1 6.81893 6.64596 -6.53917 
3539 2 5.84562 6.06133 7.20991 
2574 1 -6.23287 -6.34183 -5.95931 
1555 1 -6.18807 -5.7097 -5.36877 
2747 2 -7.16316 -7.11166 -5.43658 
1490 1 -6.01187 -6.46527 -4.95136 
2727 1 -4.83549 -6.77646 -4.73138 
3520 2 -5.08626 -6.69602 -5.97782 
1885 1 -5.19512 -5.75336 -4.69457 
964 1 -4.14824 -6.75033 -5.28417 
1784 1 -4.01631 -5.61644 -5.94738 
977 1 -3.86592 -6.83879 -6.31911 
715 1 -3.17837 -7.04637 -5.67107 
1227 1 -2.45147 -6.47052 -5.62388 
1725 1 -3.52598 -6.22385 -5.66759 
3455 2 -1.09373 -6.60233 -5.03863 
1107 1 0.143669 -6.34328 -6.00895 
2491 1 -0.128051 -6.85433 -5.45412 
1210 1 -0.108665 -5.6088 -5.09214 
2096 1 -0.244877 7.22214 -4.10486 
3128 2 1.24043 -6.38485 -5.45586 
2978 2 1.307 -7.17243 -5.45377 
1992 1 1.89982 7.08241 -4.50147 
2145 1 2.27536 -6.18716 -5.4821 
893 1 3.05187 -6.53817 -4.94262 
440 1 3.97787 7.11961 -4.41542 
2656 1 3.83389 -6.44085 -4.58732 
2051 1 4.34085 -6.58854 -5.44815 
1295 1 5.07649 -6.68851 -5.76313 
1051 1 5.95941 -6.89297 -5.54874 
2926 2 5.00544 -6.615 -4.60839 
2136 1 5.61675 -6.00379 -5.44713 
3487 2 7.20989 -6.41208 -5.26847 
1718 1 -6.0688 -5.48832 -6.35321 
1893 1 -6.56711 -4.79999 -4.67142 
2269 1 -6.59165 -4.80758 -5.53869 
3416 2 -5.01758 -5.92478 -5.84755 
3325 2 -5.35784 -5.18924 -5.74922 
582 1 -4.64783 -4.92055 -4.63097 
2612 1 -4.13188 -4.98423 -5.39172 
1609 1 -4.20429 -5.83869 -4.97978 
401 1 -2.4599 -4.82844 -3.46129 
1691 1 -2.30445 -5.59413 -5.21826 
1344 1 -3.19634 -5.44762 -5.12402 
104 1 -2.50781 -4.73909 -4.30824 
15 1 -0.791866 -5.50178 -5.87423 
3594 2 -1.19361 -5.8081 -4.88008 
3322 2 -1.2519 -5.00396 -4.55427 
995 1 -1.38048 -4.80306 -5.66428 
687 1 -0.243768 -4.75533 -4.8845 
2826 2 0.926443 -5.41243 -5.45067 
3068 2 0.761014 -4.68939 -5.02734 
2298 1 1.53445 -5.87318 -4.41423 
1416 1 2.00809 -6.47974 -4.73771 
224 1 2.90647 -5.73957 -4.66328 
2712 1 2.69552 -4.74331 -4.74075 
2933 2 3.19743 -5.59858 -5.79174 
1976 1 4.17985 -5.15999 -5.98339 
281 1 4.00933 -5.60863 -5.01063 
2479 1 6.17057 -5.12124 -5.73726 
538 1 5.1147 -5.17552 -5.37548 
1373 1 5.95604 -4.25498 -5.70176 
2828 2 6.99936 -5.69711 -5.11794 
3010 2 6.87444 -4.89536 -4.78857 
317 1 5.71266 -4.81334 -4.82071 
346 1 -6.38029 -3.76499 -5.98134 
1673 1 -6.36543 -4.1093 -4.20228 
2912 2 -5.36515 -4.52266 -5.37722 
647 1 -4.44973 -2.96196 -4.79268 
2496 1 -3.60378 -3.60249 -4.60184 
2248 1 -3.45507 -4.57345 -4.91305 
477 1 -4.51732 -3.24264 -5.66433 
1979 1 -2.69135 -2.86667 -4.99364 
1143 1 -2.64538 -4.77283 -5.17431 
1643 1 -0.761594 -4.1231 -5.37857 
2426 1 -1.75794 -3.67372 -5.47831 
842 1 -0.407369 -4.81261 -5.64563 
527 1 0.155588 -4.24331 -6.06683 
2768 2 0.616425 -3.75745 -4.88984 
2102 1 -0.0469987 -4.76008 -3.98073 
2178 1 1.76885 -3.70476 -4.81433 
3249 2 2.96008 -4.94148 -5.87035 
3014 2 2.96703 -4.15662 -5.62993 
2150 1 4.33629 -4.63233 -5.34589 
1472 1 3.71053 -3.43464 -4.88294 
388 1 3.71293 -4.2819 -4.71028 
85 1 4.92891 -4.18794 -5.26923 
1526 1 5.52464 -3.93904 -4.76721 
3080 2 6.75868 -3.94019 -4.74097 
639 1 7.02126 -4.45723 -5.79975 
1872 1 -6.52576 -3.98505 -5.1105 
304 1 -6.35127 -2.01099 -6.83253 
1301 1 -6.77983 -2.22513 -4.47351 
2737 2 -5.42544 -3.8073 -5.22624 
2890 2 -5.55488 -3.06124 -5.02873 
1581 1 -4.71786 -2.4049 -5.39999 
2309 1 -4.35141 -2.00858 -4.71469 
3061 2 -3.4017 -3.63613 -5.88383 
3041 2 -3.40899 -2.70934 -5.76015 
2524 1 -2.69237 -3.79238 -4.9919 
37 1 -1.9968 -2.02104 -5.43518 
2706 1 -2.4682 -2.0132 -6.1383 
2549 1 -2.41944 -2.95793 -5.76969 
1380 1 -0.356806 -2.45815 -5.72685 
139 1 -0.689688 -3.31553 -5.53477 
3227 2 0.413347 -2.99833 -5.00637 
484 1 0.174368 -2.97978 -6.06972 
3430 2 0.144974 -2.39932 -4.56539 
1618 1 1.0154 -2.30562 -5.61584 
1984 1 0.376523 -4.75274 -6.76271 
1953 1 0.773268 -3.5401 -6.00898 
1946 1 1.24156 -1.61458 -4.89094 
2830 2 2.84233 -3.33989 -5.44107 
3356 2 2.45027 -2.64336 -5.33876 
1313 1 3.83899 -2.56557 -5.29365 
1034 1 4.6755 -2.99968 -5.07043 
2211 1 5.00138 -2.1117 -4.57091 
879 1 3.09958 -2.53408 -4.49091 
1830 1 5.45603 -2.45712 -5.15011 
2130 1 6.06682 -1.79609 -5.45609 
2972 2 4.74868 -2.29604 -6.00329 
847 1 5.67611 -3.40939 -5.42813 
452 1 -7.16412 -2.70574 -5.63637 
720 1 6.98328 -1.80987 -5.12886 
2974 2 -5.65614 -2.3192 -4.97551 
1369 1 -5.87723 -0.627104 -5.60426 
493 1 -5.05299 -0.974755 -5.98022 
2993 2 -5.90542 -1.42051 -4.69236 
1835 1 -4.69969 -1.17266 -4.32576 
1841 1 -6.05222 0.338294 -5.66493 
2869 2 -3.58155 -1.9505 -5.76374 
2844 2 -3.78277 -1.16907 -5.49958 
1790 1 -2.64375 -1.37857 -5.69411 
1064 1 -0.952013 -2.28029 -4.72724 
1864 1 -2.78865 -1.89478 -4.92781 
2601 1 -2.83829 -1.13137 -4.65813 
1484 1 -1.05912 -1.4083 -4.31036 
871 1 -1.85123 -1.30356 -4.79758 
2105 1 0.0818284 -1.84048 -5.91207 
2395 1 -0.972351 -1.65064 -5.27005 
84 1 1.6606 -1.59985 -5.9863 
1890 1 1.12976 -0.738104 -4.98998 
2605 1 0.298312 -0.568935 -5.35027 
3557 2 2.3151 -1.75303 -5.17301 
3449 2 2.27117 -0.832365 -5.02513 
72 1 3.43034 -1.86437 -5.64677 
2336 1 3.23399 -0.882892 -5.58938 
110 1 4.21305 -1.82555 -4.79947 
2352 1 4.76267 -1.00708 -4.43913 
140 1 5.59566 -0.606243 -5.32661 
2995 2 4.48782 -1.5973 -5.87975 
153 1 5.02402 -1.50723 -3.63322 
1496 1 6.19364 -2.65842 -5.8233 
1145 1 -7.00821 -0.995327 -5.31377 
2054 1 7.20062 -0.436532 -4.06296 
3267 2 -6.17521 -0.725916 -4.63086 
806 1 -6.72485 0.328463 -6.32373 
1402 1 -6.77439 -0.299454 -5.64639 
3186 2 -6.30069 0.1292 -4.61675 
2180 1 -4.60236 0.968758 -6.27247 
1551 1 -5.24674 0.217125 -5.39864 
3543 2 -3.98879 -0.488755 -5.15004 
3256 2 -4.05914 0.346115 -5.10645 
2077 1 -2.50827 0.342217 -4.80587 
2718 1 -3.07205 0.399854 -5.53745 
1268 1 -1.96336 -0.473683 -4.8431 
400 1 -1.41889 -0.345134 -3.95685 
1094 1 -0.98924 -0.63791 -4.99937 
1057 1 0.806793 -1.38317 -5.50908 
75 1 -0.119579 0.128558 -5.20783 
3443 2 1.92068 0.597837 -4.83733 
2489 1 0.465961 0.623421 -4.93398 
1241 1 2.45812 -0.359071 -5.97894 
3383 2 2.17299 -0.151747 -4.77449 
1185 1 2.95659 0.927296 -4.97643 
859 1 3.29341 0.113211 -5.20591 
296 1 3.34071 0.176271 -4.39101 
3317 2 4.38471 -0.906216 -5.57248 
2848 2 4.44423 -0.127081 -5.48968 
455 1 5.67993 0.618306 -5.10176 
1648 1 5.14565 -0.201969 -4.66008 
1466 1 5.1031 0.646988 -4.55011 
34 1 6.47804 -1.06341 -5.0896 
2297 1 6.17536 -0.137238 -4.91148 
1882 1 6.97973 -0.217491 -4.99332 
2423 1 -6.08294 1.09482 -5.46102 
2151 1 -7.10975 1.07693 -6.58683 
1584 1 -6.8868 1.55376 -5.85253 
2523 1 -5.13253 1.19683 -5.69641 
1793 1 -5.46518 1.20804 -4.78192 
857 1 -3.47661 1.83271 -5.58078 
2490 1 -3.63675 1.04097 -6.05154 
3144 2 -4.36288 1.06041 -4.98326 
1238 1 -3.04938 1.1629 -5.04744 
2846 2 -2.04406 1.32771 -5.5022 
2939 2 -1.84861 0.642793 -5.75589 
2037 1 -1.29853 2.57994 -5.70319 
1880 1 -1.12254 0.200243 -4.90429 
28 1 -0.964687 1.13678 -4.91981 
549 1 -0.0964853 1.16925 -5.13247 
1257 1 -0.274456 1.95844 -4.79965 
1777 1 1.41693 0.943757 -6.36959 
1374 1 1.8554 0.249374 -6.09414 
76 1 2.70117 0.563559 -5.79289 
2575 1 2.73572 1.34398 -4.26294 
1713 1 2.10256 1.22256 -5.84488 
171 1 2.5038 1.7407 -5.2722 
3364 2 4.17788 0.756849 -5.19436 
3388 2 3.85991 1.41479 -5.24133 
1568 1 6.09147 1.34886 -4.50713 
941 1 5.37099 1.10882 -5.77766 
3038 2 6.15811 1.62666 -5.67227 
1151 1 -6.81526 0.714644 -5.33265 
523 1 6.63896 0.828946 -4.73701 
829 1 7.08909 2.35949 -5.7122 
412 1 -5.78864 2.96997 -4.71991 
1335 1 -6.51508 1.89994 -5.27932 
408 1 -4.9552 2.39493 -6.20598 
3062 2 -4.42829 2.54577 -4.7553 
1607 1 -5.19815 1.99077 -5.42574 
2861 2 -4.40076 1.75477 -4.66187 
668 1 -4.11549 2.53997 -5.72018 
1986 1 -3.53413 3.10358 -4.69046 
3117 2 -2.30994 2.04943 -5.30084 
2945 2 -2.53396 2.83835 -5.08419 
1483 1 -3.41571 2.21913 -4.96883 
2708 1 0.313809 2.70428 -4.61576 
3444 2 -0.222522 2.95064 -5.70026 
1375 1 0.860019 2.42176 -5.25043 
1521 1 -0.547979 2.81143 -4.61304 
867 1 0.570045 1.60284 -4.84883 
2522 1 0.844504 2.78423 -6.17179 
894 1 0.716554 3.29955 -4.98322 
221 1 1.26264 1.81835 -5.94548 
2271 1 1.8263 2.42058 -5.42051 
530 1 2.91876 1.89187 -5.9803 
3433 2 3.80674 2.1748 -4.93021 
2894 2 3.79073 2.92684 -4.74952 
1778 1 4.91346 2.2162 -5.35267 
3414 2 5.86784 3.16843 -5.33514 
2703 1 4.5703 4.19926 -5.00639 
698 1 5.5402 2.19019 -4.54442 
3060 2 6.03715 2.43108 -5.54484 
92 1 -6.61381 2.77158 -4.96697 
896 1 -5.99266 3.93293 -4.73506 
1169 1 -6.73044 3.61787 -4.85668 
789 1 -5.50432 4.81071 -5.95911 
2200 1 -5.28368 2.84234 -5.3136 
1543 1 -4.75509 4.13883 -5.46412 
2010 1 -5.47269 3.79765 -5.47761 
1894 1 -2.58315 3.44087 -6.20257 
1669 1 -4.05477 3.46423 -5.38455 
2495 1 -3.38329 3.91131 -5.77969 
1255 1 -3.93997 4.64296 -5.27641 
2977 2 -2.54273 3.73836 -4.94863 
2647 1 -1.51235 4.15411 -5.08831 
1499 1 -1.60714 3.58251 -5.87515 
786 1 -1.52768 5.07406 -4.89638 
2813 2 -0.377712 3.71179 -5.53432 
3378 2 -0.549799 4.55614 -5.45775 
1763 1 -0.0713479 4.30086 -4.36734 
2208 1 -1.41415 3.03203 -4.94998 
482 1 1.39421 4.38209 -5.25192 
2176 1 0.63831 4.21015 -5.03307 
1639 1 1.43084 3.19376 -5.48552 
1997 1 2.6207 2.84779 -5.24746 
614 1 2.45267 4.63362 -5.38611 
3013 2 3.57033 3.74669 -4.59643 
825 1 3.39915 4.29611 -5.88192 
1390 1 4.58647 4.88075 -4.27765 
2025 1 4.19755 4.59003 -5.64147 
3298 2 5.69207 4.05931 -5.26276 
1968 1 4.80433 3.63813 -4.18943 
2541 1 6.83984 4.24602 -5.14617 
2440 1 6.77661 3.41082 -4.58235 
2546 1 6.53189 5.29582 -5.39613 
3045 2 -6.69622 4.62665 -5.76258 
2209 1 -6.94021 4.7095 -4.72503 
3147 2 -6.79547 5.55762 -5.56219 
612 1 -7.05362 5.55253 -4.38118 
2376 1 -4.7004 5.06948 -5.18007 
120 1 -5.76353 5.67514 -4.87577 
928 1 -5.73694 4.817 -5.08271 
2687 1 -3.51936 5.06916 -5.84327 
2466 1 -3.93084 5.68688 -5.29245 
2573 1 -4.7763 6.05194 -4.94366 
2865 2 -2.81688 4.71949 -4.86598 
3458 2 -2.791 5.47503 -4.60287 
2626 1 -2.3118 4.32239 -5.9059 
3392 2 -0.583541 5.43286 -5.55278 
849 1 0.442134 5.82754 -5.72346 
2038 1 0.423432 5.08796 -5.01847 
1201 1 -0.119839 5.32891 -4.32588 
1709 1 1.59321 5.92855 -4.60466 
103 1 2.16482 5.38283 -5.15762 
23 1 1.28442 5.19846 -4.97378 
2762 2 3.27371 5.22231 -4.69662 
295 1 2.83658 5.66428 -5.70605 
665 1 3.30715 6.4573 -5.23318 
686 1 3.53654 5.11221 -5.66931 
2028 1 4.27951 5.40496 -4.74744 
2917 2 5.60108 4.8316 -5.19489 
2927 2 5.36705 5.5592 -4.93866 
462 1 6.33561 5.94229 -5.83385 
3330 2 -6.91533 6.43898 -5.55601 
1060 1 -6.55838 -6.92198 -4.50121 
1004 1 -5.52052 6.47525 -5.10886 
822 1 -5.38002 5.66095 -5.70376 
1318 1 -5.86444 6.49343 -5.84757 
803 1 -4.47962 6.85957 -4.72986 
2275 1 -3.83153 6.74943 -5.38161 
897 1 -2.47737 6.95703 -5.25618 
2018 1 -1.82683 5.83656 -4.57424 
1030 1 -3.0636 6.39531 -5.60919 
2326 1 -1.90788 6.21435 -5.46757 
658 1 -1.67496 -7.14883 -5.70682 
3018 2 -1.06882 6.94376 -4.86247 
3207 2 -0.804257 6.17681 -5.19644 
2322 1 0.314926 5.96897 -4.81916 
512 1 -0.152435 6.17578 -4.18982 
2899 2 1.24378 6.50332 -5.63994 
1629 1 0.981356 6.80669 -4.57357 
2462 1 3.79464 -7.08182 -5.15921 
1175 1 2.73645 7.06902 -5.11388 
1249 1 2.2813 6.39459 -5.10884 
2256 1 2.29584 -7.14072 -5.70593 
1422 1 3.99724 5.73968 -5.39943 
1513 1 4.3215 6.73883 -5.49236 
404 1 5.57677 6.12771 -6.18198 
3257 2 5.41621 6.35536 -4.92674 
2971 2 5.21424 7.05449 -4.70613 
2160 1 6.24785 6.78658 -5.9508 
1667 1 6.35589 6.71721 -5.08131 
2539 1 6.79951 6.07855 -4.77347 
2469 1 6.04702 5.98888 -4.0928 
1312 1 -6.47577 -5.8933 -4.32055 
1741 1 -6.5436 -6.34973 -3.1508 
3469 2 -5.60137 -6.38317 -3.82633 
3545 2 -5.55881 7.23775 -3.68103 
1232 1 -4.31583 -7.21126 -3.88526 
2835 2 -3.23196 -6.55563 -4.59785 
2672 1 -3.64127 -6.26807 -3.22189 
1252 1 -2.73397 7.14441 -3.34411 
2033 1 -2.49952 -6.2274 -3.58969 
356 1 -2.30934 -5.65992 -4.38786 
1836 1 -2.23141 -6.5005 -4.74751 
708 1 -1.71812 -6.11993 -3.96285 
1945 1 0.331038 -6.53553 -4.73763 
2969 2 0.366757 -6.28923 -3.15078 
1382 1 0.0849034 6.84564 -4.87074 
2168 1 2.38612 6.93776 -3.05663 
1799 1 1.09761 -6.76704 -4.29961 
2067 1 1.61269 -7.02559 -3.61469 
3303 2 2.92455 -7.00238 -3.9066 
2315 1 3.82712 -6.32589 -3.7001 
189 1 4.24954 -7.1651 -3.63352 
244 1 5.83795 -6.72011 -3.71083 
929 1 4.85736 -6.76227 -3.46065 
1530 1 6.60564 7.0579 -4.36153 
2288 1 5.94486 -5.6775 -4.87458 
1263 1 6.16625 -6.54339 -4.76131 
2162 1 -7.02731 -5.89534 -3.70516 
3228 2 -5.69623 -5.6197 -3.43603 
2106 1 -5.82742 -5.13506 -4.42959 
138 1 -4.26654 -6.48461 -4.1411 
3413 2 -3.46714 -5.87589 -4.10125 
2332 1 -4.62988 -5.75334 -4.02669 
3562 2 -3.46078 -5.10946 -4.08815 
1728 1 -2.49072 -3.80749 -3.42375 
772 1 -3.15435 -3.47752 -3.00584 
350 1 -2.65652 -5.56302 -3.08316 
1810 1 -0.448804 -5.55105 -4.26893 
322 1 -1.68621 -5.33984 -3.43506 
728 1 -1.73769 -4.34366 -3.28483 
1468 1 -0.883813 -4.92076 -3.56827 
635 1 0.519192 -5.6912 -4.31445 
3206 2 0.185858 -5.45407 -3.10168 
1863 1 1.60546 -4.74424 -4.4486 
1065 1 1.54869 -5.10524 -3.18777 
2918 2 2.51158 -6.29682 -3.76971 
3379 2 2.56799 -5.50837 -3.62492 
1653 1 3.67968 -5.53881 -3.94585 
2825 2 4.59453 -5.10352 -4.39084 
2193 1 3.05437 -5.153 -2.70177 
3290 2 4.87113 -5.91076 -4.49333 
2571 1 5.64767 -5.76019 -3.78182 
2721 1 5.9211 -3.97976 -3.9431 
1000 1 6.55212 -6.01544 -4.07597 
1994 1 6.69826 -4.99972 -3.77596 
2695 1 5.93523 -4.94306 -4.01823 
1013 1 -6.75225 -5.05347 -3.91281 
844 1 -7.06387 -3.65458 -4.01847 
587 1 -5.85459 -3.48543 -4.02308 
2310 1 -4.56775 -3.99006 -4.57651 
1999 1 -5.41397 -4.25295 -4.16803 
1733 1 -5.09306 -3.30905 -3.95904 
2388 1 -4.8572 -4.83436 -3.85294 
3536 2 -3.58545 -4.58513 -3.74997 
3376 2 -3.9086 -3.86567 -3.6365 
458 1 -2.84024 -3.92797 -4.13378 
904 1 -3.43592 -2.80035 -2.44966 
3480 2 -1.57255 -4.34208 -4.44158 
3285 2 -1.73517 -3.58308 -4.48266 
851 1 -0.782887 -3.94326 -3.47046 
1069 1 0.943466 -4.96782 -3.88419 
1611 1 0.586399 -3.79616 -3.75265 
250 1 1.34083 -2.68603 -4.85141 
1998 1 1.34892 -4.58346 -2.46689 
1237 1 1.49907 -4.01958 -4.13567 
2113 1 1.91826 -5.32 -5.58734 
2306 1 3.41942 -5.14025 -4.68097 
1073 1 1.98409 -4.34535 -5.40019 
1075 1 2.62199 -3.91218 -4.48333 
3015 2 2.26476 -4.00151 -3.39134 
3340 2 4.74896 -4.54232 -3.91937 
3244 2 4.69906 -3.87926 -4.22283 
891 1 3.16087 -3.36495 -4.24346 
2552 1 5.66053 -4.40428 -3.35997 
1493 1 5.47035 -3.21342 -4.45465 
335 1 6.77219 -4.20251 -3.62195 
656 1 -6.57146 -3.02228 -4.81356 
1707 1 -6.08374 -2.02175 -3.70399 
1144 1 -5.68595 -2.64354 -3.90024 
56 1 -4.95755 -2.24466 -4.02794 
1446 1 -3.0276 -2.04781 -3.93629 
172 1 -3.48812 -2.57839 -4.57949 
3083 2 -3.97637 -3.07805 -3.73367 
3229 2 -4.07561 -2.35755 -3.41852 
1470 1 -2.9147 -3.01257 -3.95748 
195 1 -3.00289 -2.67314 -3.22292 
3198 2 -1.96507 -2.07974 -3.93561 
2916 2 -1.86295 -2.76773 -4.34192 
128 1 -1.36711 -2.74022 -5.52041 
1722 1 -0.61827 -3.24834 -4.57536 
954 1 -0.302729 -3.972 -4.40234 
1431 1 0.00556614 -3.03398 -3.78172 
607 1 1.29765 -2.18341 -3.94818 
2044 1 1.17498 -3.03324 -3.93527 
535 1 2.26514 -3.06012 -4.22704 
236 1 2.80966 -1.96763 -3.12261 
349 1 2.96892 -2.70946 -3.36051 
2857 2 4.25576 -3.24174 -4.00077 
3353 2 4.01886 -2.48616 -3.90563 
148 1 5.46061 -1.37337 -4.96863 
423 1 6.31376 -3.25021 -3.47891 
190 1 5.23687 -2.47005 -3.93639 
2858 2 6.48856 -2.35406 -4.38473 
3173 2 6.63866 -3.1248 -4.68317 
874 1 -6.57637 -2.78096 -3.8986 
1325 1 -6.91416 -1.88621 -3.63553 
863 1 -6.3515 -1.10651 -3.54563 
90 1 -7.24344 -1.27402 -4.36686 
960 1 -5.40631 -0.542281 -3.78063 
517 1 -5.3181 -2.20516 -3.04773 
1572 1 -5.25739 -1.39427 -3.69954 
1428 1 -5.17797 0.0532646 -4.48227 
808 1 -3.6999 -0.717432 -4.0677 
2638 1 -3.22724 -1.22502 -3.55003 
111 1 -4.5333 -0.413633 -4.04286 
2766 2 -1.99804 -1.24037 -3.64505 
572 1 -3.7154 -1.61126 -4.44632 
481 1 -2.83587 -1.8981 -2.96371 
2237 1 -0.737381 -1.162 -3.45205 
858 1 0.0988452 -0.892958 -3.04847 
2542 1 -0.69114 -2.31917 -3.77145 
3354 2 0.151018 -1.50809 -4.52502 
3585 2 -0.0821716 -0.783772 -4.32367 
2020 1 0.0343955 -1.8952 -3.34715 
1296 1 0.803707 -0.0614355 -4.67628 
202 1 1.27353 -1.05131 -4.18522 
984 1 0.74516 -1.46679 -3.52805 
971 1 2.88355 -1.71185 -4.08822 
169 1 2.17088 -2.23354 -4.18937 
1337 1 3.31175 -1.54509 -4.86798 
2084 1 3.72694 -0.789499 -4.78749 
3134 2 3.97768 -1.69716 -3.65199 
1299 1 5.44593 -2.06958 -3.27344 
1703 1 4.79635 -0.222497 -3.88058 
3116 2 6.21879 -1.6966 -4.15669 
319 1 -6.17761 -0.0900785 -3.42778 
385 1 -5.09917 -0.57332 -5.0025 
1627 1 -5.67039 0.568741 -3.41598 
2302 1 -4.10887 0.346029 -3.95953 
1248 1 -3.56735 -0.278966 -3.36511 
827 1 -3.2751 0.479574 -4.18958 
2674 1 -3.12884 -0.311921 -4.59624 
2748 2 -2.34543 -0.562083 -3.65522 
2789 2 -2.40024 0.183216 -3.55839 
2241 1 -1.08804 -0.459199 -3.16103 
2108 1 -1.26062 0.568456 -3.72691 
3500 2 -0.353635 -0.0918109 -4.07321 
3555 2 -0.388476 0.619303 -4.10565 
247 1 1.58801 -0.36979 -3.75349 
1531 1 1.23226 0.225243 -5.45748 
506 1 1.79732 0.436143 -3.57964 
2013 1 1.06379 0.301106 -4.00063 
2722 1 3.03036 -0.561161 -4.19246 
922 1 2.02537 -1.13545 -3.93888 
583 1 2.64248 0.59542 -3.93232 
840 1 4.20751 -0.0785431 -4.46507 
2914 2 3.95173 -0.936471 -3.60998 
1548 1 4.40373 0.931787 -4.05292 
2902 2 5.91748 -0.0773739 -3.83557 
2856 2 6.07526 -0.846398 -4.05549 
1575 1 7.01226 0.421239 -4.16921 
3263 2 -6.42048 0.801526 -4.14532 
3260 2 -6.63311 1.50053 -4.056 
654 1 -6.70658 0.67922 -3.2819 
2690 1 -5.68671 2.11103 -4.71618 
35 1 -5.84867 2.07943 -3.46397 
1913 1 -5.36017 1.523 -3.97727 
2278 1 -4.66731 1.7856 -3.53411 
1343 1 -4.95415 0.720074 -4.10859 
1316 1 -3.82707 2.11236 -3.59922 
3490 2 -2.57068 0.916228 -3.33374 
882 1 -3.76024 1.16078 -3.77144 
969 1 -2.4686 1.32775 -4.3608 
2529 1 -3.33958 1.74304 -4.33007 
1971 1 -1.73424 0.737663 -4.46152 
3196 2 -0.592869 2.07881 -3.7213 
1775 1 -1.48096 1.64104 -4.21164 
2950 2 -0.31214 1.34773 -3.95698 
2406 1 1.06489 1.18467 -5.45164 
1700 1 1.36043 1.2324 -3.42664 
3241 2 1.61907 1.30806 -4.57788 
2 1 0.678422 1.09923 -4.10784 
3063 2 1.56201 2.0867 -4.42405 
613 1 2.18223 1.45206 -3.46833 
2707 1 3.62025 1.77609 -3.964 
2327 1 5.18059 1.54594 -4.84 
2584 1 4.73527 2.53264 -4.42606 
81 1 4.42765 1.97896 -2.50604 
1364 1 3.66911 0.96593 -4.233 
2223 1 4.34853 1.23551 -3.15599 
2317 1 4.50082 1.74812 -4.10122 
2819 2 5.81938 0.693687 -3.76408 
3209 2 5.50126 1.42776 -3.54364 
817 1 6.79519 1.31456 -3.66387 
1200 1 6.38049 2.09438 -4.3887 
3033 2 -6.78688 2.35742 -3.94717 
2751 2 -6.80031 2.98909 -3.64013 
978 1 -4.72068 2.69278 -3.56804 
1862 1 -5.62825 3.08244 -3.25735 
2061 1 -5.43791 2.4678 -3.96313 
2436 1 -3.2742 3.51472 -3.91375 
1783 1 -3.23208 2.48247 -4.10047 
1761 1 -3.94929 2.93446 -3.66425 
1910 1 -2.40035 2.15804 -4.1648 
561 1 -1.196 2.12638 -4.89035 
2030 1 -1.79199 2.9492 -3.10477 
2592 1 -2.16336 3.69041 -3.2734 
46 1 -1.63627 2.64899 -4.1367 
2860 2 -0.756022 2.79606 -3.54953 
2442 1 0.401881 2.99879 -3.74013 
2328 1 0.453202 2.15579 -4.00693 
3479 2 1.56002 2.84447 -4.22296 
970 1 2.81362 2.1502 -4.55038 
1614 1 2.73434 3.00565 -4.31892 
130 1 1.78222 2.20882 -3.18947 
254 1 2.79467 2.0972 -3.69199 
946 1 3.46614 2.75052 -3.56395 
556 1 4.2406 2.00463 -3.35874 