ITEM: TIMESTEP
36300
ITEM: NUMBER OF ATOMS
3594
ITEM: BOX BOUNDS pp pp pp
-7.1916605159543874e+00 7.1916605159543874e+00
-7.1916605159543874e+00 7.1916605159543874e+00
-7.1916605159543874e+00 7.1916605159543874e+00
ITEM: ATOMS id type x y z 
1345 1 -6.9664 -6.22141 -6.35529 
2582 1 -5.89707 -6.52341 -6.66649 
3366 2 -6.59312 -6.56374 6.66054 
3477 2 -5.02602 -6.89306 -6.02915 
233 1 -5.61354 -7.04859 -7.10527 
427 1 -3.69255 7.18154 -5.98859 
2546 1 -3.7906 -6.79232 -6.8287 
959 1 -3.87325 -6.32352 -6.00367 
2944 2 -2.57634 -7.06477 -6.5666 
3574 2 -2.76797 -6.31817 -6.4569 
741 1 -1.57609 -6.24306 -6.66174 
3368 2 -0.662704 -6.06429 -7.08077 
1356 1 -1.6889 -6.64776 -5.75492 
1521 1 0.175414 -6.65689 -6.13299 
1634 1 0.704743 -6.18463 -6.73432 
1663 1 0.40377 6.94743 -6.4265 
1734 1 2.04538 -6.19372 -6.52304 
498 1 2.16359 -5.0728 -6.59147 
1587 1 1.46943 -6.75347 -6.68267 
2623 1 2.6573 -6.63459 -7.01495 
949 1 2.26598 -6.65409 -5.7496 
3587 2 3.35761 -6.33104 -5.99303 
779 1 4.35594 -5.99403 -6.26414 
3569 2 3.42686 -7.06399 -6.34155 
2009 1 4.51315 -6.87622 -6.48236 
645 1 3.776 -5.93171 -7.17809 
2787 2 5.48938 -6.79935 -6.76886 
924 1 4.67877 -6.84348 -5.63669 
2573 1 6.79904 7.11641 6.70367 
1291 1 6.56785 -6.56801 -6.57629 
302 1 6.25916 -6.80999 -5.9258 
392 1 -5.78228 -4.62844 -6.49954 
1263 1 -6.69896 -4.77856 -5.85672 
1273 1 -6.09915 -5.58147 -6.43563 
1654 1 -5.08126 -5.49418 -6.79625 
1020 1 -4.11271 -5.98976 -6.89896 
843 1 -4.13029 -5.30704 -6.02895 
2702 1 -3.76156 -5.04673 -7.11934 
2981 2 -2.99585 -5.50727 -6.35246 
386 1 -2.08669 -4.54058 -6.53397 
2018 1 -2.03594 -5.61987 -6.9144 
3484 2 -0.92171 -4.48647 -6.82582 
3019 2 -0.716509 -5.3033 -6.92207 
2368 1 -1.05518 -5.90956 -5.96482 
1333 1 0.421485 -5.55922 -7.10393 
2537 1 0.333726 -5.04411 -6.38009 
1836 1 0.0686921 -5.86401 -6.1904 
774 1 1.29767 -5.66117 -6.40002 
3442 2 3.21928 -5.56776 -6.00895 
619 1 1.6045 -4.45155 -5.90898 
290 1 2.68642 -5.67747 -6.90999 
1385 1 2.09723 -5.6593 -5.8749 
1415 1 4.27024 -5.03528 -6.27806 
248 1 3.30333 -5.08817 -7.03723 
288 1 4.34535 -5.20969 7.18877 
3208 2 5.43771 -5.94921 -6.64871 
2812 2 5.35361 -5.11599 -6.61302 
1312 1 6.48619 -5.58265 -7.03473 
274 1 7.00073 -5.45309 -6.19814 
1373 1 6.56777 -4.81835 -5.92616 
1320 1 6.31369 -5.76678 -5.95316 
2706 1 -6.30026 -4.0916 -6.02277 
2975 2 -7.13274 -4.36097 -7.02652 
3126 2 -7.1848 -3.57128 -7.03337 
2106 1 -5.98454 -3.56187 -6.61882 
1640 1 -5.13574 -4.3013 -6.51891 
1949 1 -6.07886 -3.97744 7.00782 
1477 1 -4.51529 -4.93614 -6.78901 
2516 1 -3.73 -4.02158 -7.08207 
3041 2 -3.3513 -4.08092 -6.02199 
2661 1 -4.42898 -3.64767 -6.70852 
2381 1 -3.76483 -3.05822 -6.97484 
3061 2 -3.17192 -4.70457 -6.26491 
2549 1 -2.08526 -4.25546 -5.81585 
139 1 -1.92824 -4.01414 6.63644 
2808 2 -1.2833 -3.82811 -6.90122 
3332 2 -1.35999 -3.06477 -6.51403 
1689 1 -0.300372 -4.5459 -5.80172 
658 1 0.179633 -4.45262 -7.00961 
2709 1 0.687186 -3.88677 -6.04385 
1837 1 1.03445 -4.72993 -6.42613 
628 1 1.48307 -3.53973 -6.11213 
329 1 2.09391 -3.82275 -6.56969 
2256 1 2.94947 -4.39262 -6.83123 
2933 2 2.75644 -4.20444 -5.61147 
2628 1 2.70855 -2.79115 -6.82981 
1418 1 3.10569 -3.58794 -6.75951 
847 1 4.00843 -3.41986 -7.11386 
190 1 3.80627 -4.34194 -6.65718 
303 1 3.8202 -3.64695 -6.07463 
3212 2 5.16486 -4.36293 -6.37068 
3266 2 5.01953 -3.58243 -6.45107 
1597 1 7.08125 -4.05588 -5.84851 
2101 1 6.3058 -3.84256 -6.44532 
2331 1 5.941 -3.67389 7.05392 
2612 1 -6.6605 -3.31731 -5.95987 
2114 1 -6.21821 -2.75616 -6.45872 
572 1 -5.24958 -3.52087 -6.22825 
1445 1 -5.46517 -2.4761 -6.13417 
1434 1 -4.52794 -2.63748 -6.37277 
2397 1 -2.7862 -2.41303 -6.83458 
2869 2 -3.3047 -3.30609 -5.80794 
743 1 -2.95338 -3.23036 -6.91152 
1738 1 -2.07509 -2.14918 7.10962 
1087 1 -2.31517 -2.53565 -6.12827 
484 1 -2.32362 -3.46825 -6.44167 
3234 2 -1.10637 -2.35607 -6.29865 
2263 1 -0.157466 -2.25437 -6.51812 
250 1 0.650076 -2.9717 -6.23762 
1050 1 -0.100269 -3.12916 -6.91891 
2631 1 1.41971 -2.83542 -5.59824 
3347 2 0.84913 -2.75701 6.96996 
2804 2 0.689786 -2.06327 -7.15152 
388 1 2.86886 -1.84526 -6.59619 
886 1 2.10643 -1.73181 7.13867 
1770 1 1.68475 -2.58181 -6.51013 
2150 1 3.61611 -1.91254 -6.26032 
2645 1 3.6601 -2.64124 -6.90458 
40 1 3.77301 -2.84017 -6.14808 
2767 2 4.8352 -2.77412 -6.18826 
3550 2 4.76656 -2.06918 -6.13733 
2721 1 6.33097 -2.47149 -5.71355 
3087 2 7.06901 -2.65002 -6.72016 
2670 1 7.01697 -3.1618 -5.58296 
1987 1 5.92195 -2.84255 -6.63811 
2074 1 5.93901 -1.66936 7.13859 
90 1 -6.52421 -1.05891 -6.50259 
41 1 -6.07004 -1.7905 -6.36964 
2320 1 -5.13977 -1.72462 -5.87879 
1446 1 -4.5129 -0.695795 -6.37772 
3097 2 -5.32351 -0.773227 -6.90865 
174 1 -3.54482 -0.804144 -6.55869 
1722 1 -4.11936 -1.19222 7.11557 
18 1 -4.31904 -1.58562 -6.49828 
1450 1 -4.18795 -1.31739 6.27701 
1800 1 -2.36973 -1.4412 -7.05069 
1928 1 -3.10874 -1.58312 -6.6627 
3105 2 -1.48238 -1.6516 -6.37507 
3200 2 -1.61175 -0.908099 -6.20437 
323 1 -1.26486 -0.612428 -7.0193 
607 1 -0.380811 -1.35528 -6.2199 
3151 2 0.650961 -1.40139 -6.85571 
2520 1 1.76369 -1.47685 -6.27639 
2178 1 1.61234 -1.80782 6.46139 
296 1 2.05528 -0.385919 -6.3638 
1034 1 2.55497 -1.03603 -6.32771 
1085 1 3.74442 -0.887182 -6.56756 
1834 1 4.06194 -1.64836 -6.91583 
1362 1 4.92858 -1.77641 -7.14509 
148 1 5.70028 -0.903324 -5.77163 
478 1 4.91539 -0.851046 -7.08327 
2510 1 5.80177 -1.86437 -6.40926 
1414 1 5.576 -0.901681 -6.68581 
2840 2 6.93789 -1.89198 -6.54422 
2797 2 6.75449 -1.07966 -6.30185 
385 1 -6.64468 -0.620722 -5.85264 
56 1 -5.82852 -0.936302 -5.88184 
3127 2 -5.54798 0.0190203 -6.8173 
625 1 -6.69303 -0.161502 -6.60261 
2699 1 -4.51704 0.302533 -6.26008 
2601 1 -4.47646 -0.00419608 -7.07723 
433 1 -3.69372 0.0850508 -6.27646 
1112 1 -2.14833 0.082114 -6.83947 
343 1 -2.89716 0.447666 -6.57916 
900 1 -2.72645 -0.630433 -6.62012 
596 1 -3.04535 -0.0510411 -5.80545 
28 1 -1.32318 0.638133 -6.56704 
2796 2 -1.80366 -0.255337 -5.71206 
1828 1 -0.795131 0.0249649 -6.68249 
994 1 -0.752847 0.429762 -6.03745 
3088 2 0.605682 -0.581365 -6.4914 
3311 2 0.393131 0.142134 -6.36931 
2326 1 -0.667945 -0.481228 -6.0509 
2600 1 1.41539 0.176333 -6.88065 
859 1 1.84375 -0.883446 -7.14112 
1695 1 2.82813 -0.248541 -5.75907 
2708 1 2.2397 0.23288 -5.85849 
110 1 3.27223 0.813051 -6.22607 
2960 2 2.66144 0.392871 -7.03346 
2418 1 5.19184 -0.0477603 -6.63857 
1876 1 3.45368 -0.0273795 -6.18146 
970 1 5.51101 -0.0190183 -5.94564 
140 1 6.181 0.645759 7.17968 
1698 1 5.83184 -0.176788 7.13209 
3135 2 6.64584 -0.281167 -6.2588 
3038 2 6.50173 0.572677 -6.09662 
1185 1 -6.92643 0.756309 -6.36493 
3007 2 -5.79644 0.802844 -6.72457 
3140 2 -6.14077 1.49291 -6.41408 
1331 1 -7.16651 1.66247 -5.99479 
1335 1 -4.64593 1.07792 -6.73512 
668 1 -5.08745 1.39739 -6.06031 
1233 1 -3.93418 0.96458 -6.03281 
1238 1 -4.22767 1.77399 -5.88873 
83 1 -3.2304 0.751637 -5.4325 
2275 1 -3.01519 1.19855 -6.34904 
1745 1 -1.18753 1.58101 -6.73355 
1619 1 -0.52641 1.76726 7.12468 
1370 1 -2.24221 1.12775 -6.86446 
1661 1 -1.09298 1.39637 -5.8153 
2928 2 0.22753 0.839055 -6.30162 
3078 2 0.00986943 1.55452 -6.19975 
2523 1 -0.484158 0.865795 -7.06583 
1057 1 1.19593 0.97198 -6.94184 
3459 2 2.25426 0.989376 -6.74763 
1176 1 3.35636 1.6168 -6.15444 
366 1 4.30519 0.375477 -6.50898 
312 1 3.6579 1.16817 -6.92851 
377 1 4.01947 2.30985 -6.13822 
2068 1 4.38565 1.34112 -6.17751 
2276 1 5.38952 0.957813 -6.60049 
2151 1 -7.15235 1.63553 -6.86577 
3060 2 6.16219 1.31576 -5.83602 
565 1 -6.78549 0.530817 6.83828 
122 1 6.06428 1.69055 -6.93686 
3465 2 -6.01616 2.23708 -6.65121 
1476 1 -5.0723 2.9825 -6.60178 
1232 1 -5.02732 1.95707 -6.77958 
3093 2 -3.999 2.08796 -7.10202 
2783 2 -4.00179 2.88425 -6.95563 
395 1 -3.36241 1.87171 -5.86986 
883 1 -2.78874 2.30797 -6.52362 
1517 1 -2.13925 2.86106 -6.28753 
2563 1 -3.08534 3.01493 -6.43379 
920 1 -1.95715 2.05632 -6.58943 
1255 1 -1.37233 2.44764 -5.81408 
3444 2 -0.146974 2.21861 -6.02159 
2813 2 -0.278357 3.0693 -5.97355 
175 1 -0.564193 3.27231 7.16819 
371 1 1.19742 1.32311 -6.08872 
693 1 0.849479 1.86878 -6.70609 
3393 2 2.21317 1.74884 -6.75183 
3417 2 2.1114 2.64045 -6.67993 
1092 1 4.68012 2.91143 -5.88618 
795 1 5.15976 2.84582 -6.69541 
1883 1 5.18793 1.93397 -6.35171 
2327 1 5.70146 2.46581 -7.18576 
339 1 7.11206 2.46192 -6.79366 
284 1 6.35297 2.72291 -6.62445 
2597 1 6.86631 3.45684 -6.13882 
2736 2 -6.2599 2.85745 -6.31998 
3238 2 -6.39596 3.64273 -5.90364 
2386 1 7.1772 3.42966 -7.00014 
536 1 -5.85386 4.14498 -6.93003 
942 1 -5.79714 5.24217 -6.33056 
539 1 -5.33801 3.64994 -7.16102 
2396 1 -5.48109 4.20237 -6.17864 
3408 2 -4.1645 3.63658 -6.79789 
3411 2 -4.51677 4.29016 -6.49188 
1394 1 -2.66179 3.75968 -6.48269 
2839 2 -2.21664 4.58711 -7.10176 
945 1 -3.24633 4.22777 7.19084 
686 1 -1.3053 3.25726 -6.63037 
448 1 -1.7958 3.83273 -5.97622 
912 1 -1.53108 4.64078 -6.26646 
597 1 -1.0078 4.02125 -6.93819 
2304 1 -0.0245659 3.92257 -6.96457 
2080 1 0.545806 3.93939 -6.32921 
3478 2 1.80354 3.48397 -6.59615 
3466 2 1.61474 4.25379 -6.43707 
1916 1 0.498393 2.91194 -6.84331 
1113 1 2.9793 3.08053 -7.07935 
899 1 2.96299 3.79015 -5.93508 
2314 1 3.00132 3.86772 -6.72753 
2092 1 3.43922 4.45413 -5.9663 
3551 2 3.99631 4.21943 -7.19051 
2765 2 4.0936 3.5045 -7.17969 
862 1 5.51395 4.43652 -6.5479 
1068 1 4.95634 3.65944 -6.38654 
2086 1 4.63328 4.52884 -6.27635 
2061 1 7.0666 4.21143 -6.94479 
805 1 6.00357 3.59919 -6.71087 
1200 1 6.4055 4.37464 -6.45599 
292 1 -6.62587 4.44723 7.00084 
2594 1 -7.1217 5.34002 6.96412 
522 1 -6.15575 5.63418 -7.02757 
59 1 -5.35649 4.87405 -5.4455 
2045 1 -5.53239 6.48415 -6.97896 
3471 2 -4.67475 5.15372 -6.47381 
101 1 -3.25981 4.60346 -6.3134 
2832 2 -2.53117 5.34747 -6.93032 
138 1 -3.65495 4.8416 -7.07079 
1308 1 -1.57588 5.6627 -6.13884 
2285 1 -0.406063 4.64121 -6.78491 
623 1 -1.00253 5.18058 -6.67776 
1940 1 -0.407034 5.65447 -6.32124 
1767 1 0.422406 4.99685 -6.53766 
2492 1 2.10118 5.19137 -7.17289 
3138 2 1.49789 5.17389 -6.18897 
1889 1 0.2573 4.90775 -5.74006 
96 1 2.45184 5.58987 -6.40999 
839 1 2.82391 4.71155 -6.41039 
1016 1 2.96208 5.1454 6.90399 
3223 2 3.81157 5.06277 -6.8728 
3215 2 3.69879 5.84457 -6.67906 
16 1 4.61349 5.49049 -6.01933 
2530 1 5.64368 5.26988 -6.55782 
865 1 5.17138 4.43304 7.0672 
2142 1 6.79105 5.27247 -6.73669 
1985 1 6.43235 5.95206 -6.25536 
1410 1 -6.84547 6.09767 -6.81051 
1697 1 -7.17158 -7.0786 -6.82483 
491 1 -5.99843 7.01982 -5.95392 
3150 2 -4.81336 6.78677 -6.13369 
3463 2 -4.76525 5.89636 -6.24127 
2200 1 -6.47146 6.93639 -6.60714 
2342 1 -3.65614 5.62774 -6.82259 
601 1 -3.92831 6.64649 -6.66146 
1643 1 -3.47605 6.13912 -5.86253 
3268 2 -2.93094 6.64901 -6.67779 
3454 2 -2.33399 6.09418 -6.79098 
2524 1 -1.31895 6.45504 -6.25853 
2635 1 -1.18883 6.12567 -7.02502 
1346 1 -1.43339 7.18736 -6.78612 
245 1 -0.605381 -6.8122 -6.11069 
1639 1 -0.363237 6.69124 -6.27118 
2630 1 0.234242 6.54921 -5.53389 
2675 1 0.458367 6.07135 -6.62302 
1905 1 2.15558 7.07008 -6.79038 
2831 2 1.43287 6.03569 -5.99655 
2899 2 1.35586 6.81446 -5.89309 
2379 1 2.53457 6.29328 -6.76401 
2048 1 2.40558 6.94188 -6.03237 
2790 2 3.63124 6.64452 -6.69146 
2711 1 4.87681 5.73208 -6.83175 
916 1 5.52159 6.11293 -6.30933 
639 1 4.90097 6.86363 -6.11173 
1311 1 4.62692 6.56312 -6.9371 
3539 2 5.77168 6.81021 -7.00867 
213 1 6.75809 6.54703 -6.61492 
1727 1 6.97073 6.23626 6.79411 
1871 1 6.19481 6.69929 -5.88065 
1616 1 -6.16904 -6.4891 -5.90683 
2747 2 -7.13667 6.9887 -5.53746 
3520 2 -5.06912 -6.07827 -5.90029 
1872 1 -5.94779 -6.82718 -5.08549 
1184 1 -5.38357 -6.18894 -4.64969 
1506 1 -3.14404 -6.54818 -5.47496 
2176 1 -4.16898 -6.73483 -5.11449 
1149 1 -2.65545 -5.97601 -5.20481 
197 1 -2.93048 6.99252 -5.61603 
1567 1 -2.33722 -6.86925 -5.23923 
3322 2 -0.952062 -6.40372 -4.90299 
3594 2 -0.8166 -7.12075 -5.03999 
786 1 0.239009 -7.03529 -5.10295 
2038 1 -0.0163802 -5.97356 -4.36963 
1107 1 0.7517 -6.467 -4.53029 
2978 2 1.24174 -6.89782 -5.62333 
3128 2 1.05952 -6.12622 -5.45063 
2632 1 1.5337 -6.40131 -4.03114 
1945 1 2.07812 -6.08038 -4.87749 
811 1 1.94305 -7.14674 -4.76548 
798 1 2.85827 -6.71278 -5.0978 
1416 1 4.17817 -6.33132 -5.30147 
709 1 3.64267 -6.59236 -4.75895 
2136 1 3.58869 -5.66077 -4.54542 
610 1 5.54325 -7.17132 -5.7571 
1493 1 4.93491 -6.06583 -5.60244 
3290 2 4.93691 -7.02827 -4.59767 
3487 2 -7.15801 -6.6606 -5.31445 
1000 1 6.05927 -6.70335 -4.91433 
695 1 -6.42926 -5.73211 -5.71408 
2828 2 6.99201 -5.81029 -5.06144 
558 1 -6.2193 -5.79766 -4.8759 
1851 1 -6.54964 -4.90017 -4.89641 
3416 2 -5.362 -5.43639 -5.68244 
977 1 -4.37238 -5.86527 -5.05363 
1071 1 -4.42291 -4.75366 -4.93702 
1406 1 -3.48272 -5.62108 -5.28493 
1086 1 -2.52275 -5.45713 -4.4664 
579 1 -1.91306 -5.85525 -5.83992 
1144 1 -3.0291 -4.71929 -5.07699 
2083 1 -1.74761 -5.1988 -6.21793 
3480 2 -1.58491 -5.96567 -4.80032 
1747 1 -0.680931 -5.28977 -5.57714 
2058 1 -0.0969776 -6.10391 -5.31898 
842 1 -0.220309 -5.12567 -4.84754 
1538 1 1.9807 -5.05217 -5.34709 
2826 2 0.771258 -5.36854 -5.46526 
1799 1 1.643 -5.50147 -4.45487 
2957 2 3.08358 -4.83954 -5.76495 
1211 1 2.80659 -5.73603 -5.00749 
1160 1 1.86382 -4.41307 -4.82904 
2469 1 3.90537 -5.33733 -5.29196 
589 1 4.76666 -5.24718 -5.59544 
2566 1 3.4358 -4.72632 -4.63578 
2574 1 5.66685 -5.02655 -5.45699 
2500 1 5.80747 -6.10917 -5.37617 
3010 2 6.83425 -5.04273 -4.80915 
2727 1 -6.56775 -4.02864 -5.15634 
318 1 -6.24055 -3.25946 -4.12863 
3325 2 -5.33972 -4.74557 -5.49966 
2912 2 -5.35997 -4.02811 -5.31365 
523 1 -4.07928 -3.87942 -5.13413 
1671 1 -3.80668 -4.85396 -5.27027 
1979 1 -3.3804 -3.92226 -4.88092 
477 1 -4.33167 -4.43406 -5.89935 
897 1 -2.35778 -5.14416 -5.37518 
594 1 -2.30354 -3.4865 -5.47048 
1629 1 -2.40087 -4.25899 -4.94508 
1285 1 -2.93564 -3.07104 -4.71357 
1127 1 -1.36611 -4.70682 -5.5352 
3198 2 -1.53316 -4.4707 -4.39888 
2453 1 -0.293821 -3.87164 -6.2839 
1380 1 -0.558347 -4.33419 -4.89658 
2768 2 0.526632 -3.92901 -5.0636 
1313 1 1.85732 -3.00278 -4.8669 
3068 2 0.787138 -4.59772 -5.25096 
19 1 1.58448 -3.68928 -5.27142 
1611 1 1.67514 -3.70286 -4.24599 
3249 2 2.72689 -3.46727 -5.53521 
2558 1 2.72872 -4.20165 -4.4066 
2539 1 3.87771 -4.42367 -5.34701 
153 1 4.14286 -3.65951 -5.29085 
26 1 3.48991 -3.79912 -4.71185 
2306 1 5.92008 -3.35313 -5.66701 
451 1 5.60101 -4.4123 -4.76495 
1372 1 5.34463 -3.52447 -5.06808 
452 1 4.90405 -4.25152 -5.32574 
2015 1 5.99759 -4.24895 -5.5636 
3080 2 6.64109 -4.19396 -4.80968 
3173 2 6.49688 -3.43408 -4.64148 
2353 1 -6.60021 -2.3373 -5.76531 
1151 1 -6.88119 -3.08849 -4.84512 
1006 1 -6.81946 -2.22606 -4.60786 
2480 1 -4.58203 -2.20317 -5.45143 
2890 2 -5.61987 -2.45531 -5.07319 
2737 2 -5.79588 -3.21839 -5.21975 
1140 1 -3.75266 -2.88261 -4.80083 
1835 1 -4.56037 -3.33917 -5.72382 
2844 2 -3.37578 -2.49085 -5.83654 
1392 1 -4.54002 -2.24591 -4.58728 
228 1 -2.31112 -2.82306 -5.0944 
2105 1 -1.50159 -3.17231 -5.53552 
2439 1 -0.94477 -4.00217 -5.58453 
2139 1 -0.808905 -2.56264 -4.63489 
3227 2 0.533408 -3.11237 -5.05677 
632 1 -0.23113 -2.9819 -5.90296 
3430 2 0.374824 -2.32813 -4.76184 
1859 1 1.25374 -2.02748 -5.96569 
3014 2 2.57492 -2.67683 -5.88179 
2830 2 2.54026 -2.03511 -5.34475 
850 1 3.88335 -2.37172 -4.92753 
27 1 3.73919 -1.8151 -5.42082 
1322 1 3.6084 -3.02409 -5.24198 
1653 1 2.98152 -2.05169 -4.43803 
2617 1 5.53231 -2.48199 -5.19323 
85 1 4.62506 -2.91348 -5.14723 
2360 1 7.06192 -2.1484 -5.34297 
2858 2 6.32762 -2.58457 -4.51568 
1927 1 -6.72505 -1.47604 -5.73046 
2974 2 -5.94796 -1.73708 -4.94847 
2993 2 -6.0324 -0.973371 -4.88241 
874 1 -5.05374 -1.07138 -5.19184 
3543 2 -3.67853 -1.79363 -5.65498 
3256 2 -3.93688 -0.959373 -5.42282 
1474 1 -2.42538 -1.68782 -5.91637 
2465 1 -2.80805 -0.927741 -4.87302 
1953 1 -2.70515 -1.99357 -5.00618 
527 1 -0.490894 -2.03676 -5.31643 
460 1 -1.57915 -2.21773 -5.27075 
858 1 -1.14152 -1.53237 -5.10566 
2589 1 -1.97774 -1.42149 -5.17367 
400 1 0.174711 -1.23672 -5.71728 
922 1 0.429221 -2.10068 -5.80661 
2298 1 1.46126 -0.733931 -5.83599 
308 1 0.94584 -1.37638 -5.34915 
3356 2 2.15614 -1.40884 -5.27683 
656 1 3.4449 -1.42469 -4.79183 
1648 1 3.2842 -1.11306 -5.77333 
2995 2 4.49084 -0.575097 -5.68989 
941 1 3.50652 -0.659251 -5.03674 
891 1 4.39542 -1.12191 -4.66998 
2972 2 4.72961 -1.30725 -5.84756 
1527 1 4.68892 -1.9582 -4.8175 
734 1 5.45588 -1.5564 -4.98368 
346 1 6.10378 -1.64934 -5.58921 
1369 1 7.02139 -1.32035 -5.10885 
802 1 6.36049 -0.777092 -5.17825 
2605 1 -5.99166 -0.0413091 -5.76749 
817 1 -6.8968 0.325737 -5.49327 
1207 1 7.1832 -0.450813 -5.29149 
3267 2 -6.4288 -0.408457 -4.60708 
1001 1 -5.0514 -0.264284 -5.76792 
2037 1 -5.31859 0.655036 -4.73207 
1781 1 -5.2122 -0.178489 -5.02356 
3144 2 -4.01873 -0.0917803 -5.17945 
2466 1 -2.74365 -0.0691583 -5.0084 
913 1 -2.83624 -0.898083 -5.83658 
2108 1 -3.20489 0.00610878 -4.31784 
640 1 -1.85836 -0.179527 -4.77756 
2013 1 -0.648149 -0.993923 -5.42829 
2939 2 -2.02088 0.622876 -5.81344 
1195 1 -1.36515 -0.729305 -4.67517 
154 1 -0.907561 -0.260671 -5.25969 
2508 1 -1.2203 0.397777 -4.62239 
1489 1 0.226267 -0.362451 -5.42977 
75 1 0.998507 -0.644909 -4.86224 
76 1 1.08469 -0.0538173 -5.52466 
1065 1 0.711775 0.835196 -5.17774 
2407 1 3.14906 0.282326 -5.05318 
3557 2 2.13435 -0.665382 -5.04824 
3449 2 2.03806 0.144764 -4.81607 
3317 2 4.16007 0.217066 -5.39606 
556 1 5.25418 -0.629468 -4.80216 
1788 1 4.81099 0.054319 -4.34368 
2380 1 5.42179 0.340546 -5.26748 
1472 1 6.13229 0.0346838 -5.2209 
34 1 6.84873 0.355931 -4.87704 
1607 1 -6.14906 0.774798 -5.5556 
1224 1 -5.26196 0.694194 -5.74302 
1514 1 -5.48245 1.41856 -5.2791 
2861 2 -4.29503 0.65325 -4.96612 
3062 2 -4.49888 1.64467 -4.87829 
1353 1 -3.40192 1.65437 -5.10271 
3117 2 -2.32155 2.10101 -5.33366 
1198 1 -2.19249 0.795597 -4.64594 
2846 2 -2.17846 1.35783 -5.62608 
1623 1 -1.00093 0.707288 -5.28053 
1971 1 -0.0202665 0.496231 -5.25758 
2542 1 -0.349856 1.32571 -5.15616 
603 1 0.268491 1.88664 -4.92912 
823 1 1.33249 0.57701 -5.84378 
867 1 0.879294 1.78736 -5.43955 
1524 1 2.74669 1.02826 -5.57162 
2730 1 1.91578 1.45973 -5.7225 
3383 2 1.94517 0.844172 -4.5475 
785 1 2.87097 1.55979 -4.88804 
925 1 3.02664 1.97741 -4.19157 
1677 1 2.772 2.09348 -5.67528 
2848 2 3.96459 1.04377 -5.20532 
3364 2 3.91489 1.80592 -5.18805 
499 1 5.11256 0.938209 -5.83619 
50 1 6.10131 0.932636 -4.84225 
1282 1 6.75965 1.21566 -4.54432 
723 1 -7.05064 1.19122 -5.20221 
2317 1 6.98487 2.5598 -5.9763 
115 1 -6.35763 1.92011 -5.16732 
131 1 -6.83133 2.48327 -5.31749 
2641 1 -5.47559 2.44282 -5.66076 
750 1 -5.86095 2.8781 -4.89686 
408 1 -4.64661 2.42217 -6.01974 
1772 1 -3.85531 2.81158 -5.85687 
2560 1 -3.62479 2.4979 -4.82722 
2845 2 -4.65833 2.42414 -4.8168 
3456 2 -4.65277 3.37346 -4.52124 
2945 2 -2.72545 2.75771 -5.34737 
2977 2 -2.73275 3.63484 -5.23765 
1265 1 -1.09528 2.12909 -5.01079 
159 1 -1.64605 3.47228 -5.35262 
287 1 -1.47295 1.17319 -4.85947 
620 1 -0.939368 3.04531 -4.84812 
1993 1 -0.220055 2.65904 -4.90807 
1978 1 0.645086 2.6421 -5.28197 
583 1 1.0986 2.3888 -6.04192 
1066 1 3.305 2.84377 -6.28031 
84 1 1.93277 2.52714 -5.60626 
3388 2 3.72683 2.56057 -5.21377 
3433 2 3.60827 3.33181 -5.00084 
194 1 4.90215 1.91526 -5.60305 
1520 1 4.6931 1.83845 -4.48925 
1768 1 5.74217 2.55722 -4.61401 
1398 1 4.97049 2.6145 -4.98806 
2578 1 6.84661 2.05025 -4.90107 
1229 1 6.99304 3.24555 -5.16957 
3298 2 5.78787 2.95731 -5.69902 
3414 2 6.11896 2.11662 -5.74948 
1060 1 -6.30317 3.70583 -4.53821 
2297 1 -6.35921 4.94463 -4.98832 
2653 1 -6.95732 3.97508 -5.05095 
1725 1 -5.4322 3.40459 -5.52246 
35 1 -5.93733 4.2323 -5.129 
1691 1 -4.7645 4.26603 -5.5285 
353 1 -3.52946 3.83917 -5.99017 
803 1 -3.93541 4.54163 -5.65488 
822 1 -4.66313 3.46008 -5.74676 
2490 1 -3.46001 3.30913 -4.51568 
561 1 -3.90475 3.40912 -5.35531 
2865 2 -2.71921 4.31009 -4.95224 
3458 2 -2.97025 4.9627 -4.85118 
1257 1 -1.25018 3.82293 -4.73843 
3378 2 -0.635534 3.71262 -5.72371 
2208 1 0.492841 3.45347 -5.1509 
1505 1 0.308055 4.6698 -4.75636 
2598 1 -0.174722 3.82251 -4.73453 
1368 1 0.985554 3.32398 -5.93662 
1817 1 0.762048 4.33266 -5.47805 
673 1 1.58035 3.39987 -5.34282 
1848 1 2.29517 3.90923 -5.51968 
1923 1 2.25653 4.10626 -4.67571 
301 1 2.52899 3.08926 -5.65378 
703 1 3.983 3.52905 -6.13349 
2894 2 3.28778 4.05616 -4.90165 
221 1 4.24511 4.20416 -5.69883 
2917 2 5.70156 3.8175 -5.58351 
2927 2 5.3622 4.49057 -5.37356 
82 1 4.67016 3.4247 -5.21882 
2707 1 6.7081 4.05947 -5.66982 
1169 1 6.20804 3.42356 -4.8326 
3045 2 -6.67173 4.60472 -6.05504 
29 1 -6.59686 6.01956 -4.60392 
3147 2 -6.79197 5.30296 -5.91463 
1341 1 7.09538 5.20806 -4.83497 
829 1 -5.87464 5.6217 -5.34079 
507 1 -4.99049 5.64373 -5.24549 
297 1 -5.88084 6.09092 -6.31595 
223 1 -3.5685 5.3806 -6.11805 
2318 1 -4.38345 4.93845 -4.99907 
1881 1 -2.36733 4.65517 -5.92963 
2988 2 -3.26311 5.66066 -4.80482 
341 1 -1.75305 4.48946 -5.30996 
3207 2 -0.858672 5.16186 -5.39332 
2446 1 -1.88005 5.38069 -5.41829 
1638 1 -0.739967 4.58191 -4.61337 
3392 2 -0.513651 4.39631 -5.6308 
2392 1 0.0769548 5.46349 -4.88057 
1924 1 1.67007 4.35656 -5.38469 
586 1 1.13588 5.18176 -5.05522 
614 1 2.0138 4.97493 -4.71973 
1261 1 2.64653 4.80639 -5.52356 
1515 1 4.10125 5.18861 -5.33765 
2814 2 3.29239 4.7609 -4.76747 
2264 1 4.39361 4.18728 -4.83367 
2305 1 3.33465 5.54968 -5.73579 
3257 2 5.48127 5.24843 -5.59035 
1667 1 6.45066 4.97005 -5.80246 
13 1 6.28298 5.90794 -5.27421 
440 1 6.70099 4.4908 -4.98155 
3330 2 -6.95469 6.11016 -5.64984 
1399 1 -6.42129 6.94058 -4.50319 
587 1 -5.75207 6.46999 -5.2158 
2033 1 -4.88881 6.57609 -4.95104 
278 1 -5.1026 -7.01458 -4.90761 
1481 1 -4.17561 5.65283 -5.45786 
1235 1 -4.0509 6.61663 -5.3982 
1435 1 -2.33823 6.21617 -5.62417 
1499 1 -2.13358 6.37209 -4.64963 
1012 1 -2.77617 5.50888 -5.80505 
3265 2 -3.18313 6.44923 -4.62474 
2835 2 -3.31929 7.12711 -4.34757 
1665 1 -2.05761 -7.11795 -4.46338 
1167 1 -1.84505 6.92311 -5.72718 
3018 2 -0.746287 5.94093 -5.37839 
3455 2 -1.12956 6.55 -5.10365 
401 1 -0.0101192 6.2602 -4.63367 
225 1 0.398379 5.75542 -5.83662 
849 1 0.84593 6.09826 -4.9978 
2096 1 1.0642 6.9866 -4.6265 
2429 1 1.68176 6.08692 -4.80811 
696 1 2.83644 6.14904 -5.81984 
799 1 2.33685 6.51299 -5.22822 
2669 1 2.26952 5.57483 -5.2773 
1935 1 3.2657 6.78635 -5.24051 
244 1 3.8092 6.12935 -5.14657 
2088 1 4.25746 6.25314 -5.83852 
1530 1 4.1148 7.03153 -5.51761 
189 1 4.24917 6.14018 -4.3813 
2971 2 5.20447 5.95704 -5.30102 
2926 2 5.09374 6.58498 -4.84882 
1965 1 6.21485 6.80319 -5.07703 
2191 1 -6.72564 -7.0491 -3.6363 
2473 1 -6.55447 -6.52842 -4.37478 
1013 1 -6.84829 -5.88367 -3.13307 
3228 2 -5.65044 -6.58398 -3.60641 
3375 2 -5.81398 -5.87234 -3.56433 
246 1 -4.61525 -6.55755 -4.18076 
3562 2 -3.54845 -5.7201 -4.24263 
3413 2 -3.59156 -6.53589 -4.29509 
1585 1 -2.39346 -6.52466 -3.63526 
2002 1 -2.49873 -6.40763 -4.52235 
2496 1 -3.12392 -6.04071 -3.36025 
1089 1 -1.29716 -6.2702 -3.84065 
1327 1 -1.42806 -7.11587 -3.96672 
2491 1 -0.721756 -6.32808 -3.11909 
2626 1 -0.511867 -6.57205 -3.96508 
3056 2 0.675158 7.03044 -3.51502 
15 1 0.97075 -5.63988 -3.9516 
1289 1 1.71732 7.06012 -3.67933 
3303 2 2.6432 -6.2498 -3.8408 
1526 1 3.96907 -6.19105 -3.76695 
1442 1 3.96808 6.94233 -4.6742 
2315 1 3.62876 -6.92673 -3.54299 
2825 2 5.03272 -6.24261 -4.47452 
281 1 4.62698 7.11473 -3.56633 
538 1 5.42924 7.13015 -3.46262 
655 1 5.86115 -6.32428 -3.85559 
938 1 4.77972 -6.40001 -3.39309 
2533 1 -7.04518 -6.36042 -3.83359 
698 1 6.49795 -6.40479 -4.27159 
2462 1 -6.94178 -5.40847 -4.00397 
316 1 -6.79876 -4.66527 -3.99129 
1994 1 -5.83588 -5.07158 -4.55286 
472 1 -4.9309 -5.30703 -4.44893 
2896 2 -5.91771 -5.20739 -3.48316 
1551 1 -4.83575 -4.84019 -3.62057 
3536 2 -3.74411 -4.98251 -4.05721 
314 1 -2.32517 -5.56328 -3.63157 
520 1 -2.57208 -4.70893 -4.15865 
3285 2 -1.30956 -5.24549 -4.68753 
127 1 -1.47726 -5.37239 -3.58622 
1062 1 -0.952063 -5.49231 -2.71824 
202 1 -0.597072 -4.73821 -3.98826 
2052 1 -0.651444 -5.56467 -3.92082 
1552 1 0.523162 -5.0096 -4.19359 
1683 1 1.35409 -4.71078 -4.148 
1130 1 1.3897 -6.01175 -3.19031 
2918 2 2.36792 -5.47697 -3.72582 
3379 2 2.31582 -4.64799 -3.59608 
1234 1 2.60186 -4.97301 -4.7211 
1019 1 4.54276 -5.40835 -3.38261 
168 1 3.43205 -4.98584 -3.88364 
3340 2 4.67149 -5.34617 -4.49506 
3244 2 4.54419 -4.60735 -4.27192 
1496 1 5.3664 -5.78777 -3.36534 
893 1 5.75656 -5.32244 -4.58799 
72 1 5.57907 -5.11613 -3.79968 
1461 1 6.42634 -5.50856 -3.95345 
335 1 -6.95262 -3.81091 -4.26871 
2659 1 6.97324 -4.39912 -3.27553 
1361 1 -6.07389 -3.954 -4.37825 
3286 2 -5.99375 -4.47345 -3.38073 
1449 1 -5.10857 -4.41024 -4.20557 
935 1 -5.23638 -3.67173 -4.10891 
2375 1 -5.15298 -3.62087 -3.22215 
3376 2 -3.8741 -4.08324 -3.89704 
3083 2 -4.1042 -3.36662 -3.73455 
2044 1 -2.81684 -3.81631 -4.22804 
2726 1 -2.82042 -4.1112 -3.35017 
111 1 -1.87727 -3.59234 -3.38894 
2916 2 -1.5632 -3.68221 -4.52236 
543 1 -1.98712 -4.48968 -3.48172 
2260 1 -0.399214 -3.40278 -4.16195 
370 1 -0.885027 -3.97093 -3.69417 
1028 1 0.439792 -3.10859 -3.89222 
1846 1 0.0663464 -4.16323 -4.13634 
1422 1 0.882654 -3.93462 -3.95241 
701 1 2.60141 -3.379 -4.52977 
3230 2 2.33611 -3.78583 -3.41544 
3015 2 2.20835 -3.01559 -3.29125 
984 1 3.12657 -3.27135 -3.75058 
1425 1 3.44429 -4.04862 -3.77627 
2857 2 4.47513 -3.70349 -4.26087 
1595 1 5.71028 -3.91471 -4.15747 
535 1 5.42446 -4.16762 -3.5537 
98 1 6.35425 -4.51275 -3.88001 
753 1 5.39459 -3.23725 -3.45677 
1031 1 6.22757 -3.42625 -3.59152 
1182 1 -7.0742 -2.83928 -3.85151 
2126 1 -6.14625 -2.37806 -4.00594 
2674 1 -4.64219 -3.16794 -4.65775 
1316 1 -4.86681 -1.5115 -4.56742 
808 1 -5.21469 -2.72746 -4.01276 
2157 1 -5.34782 -1.72355 -2.82624 
3229 2 -4.32675 -2.67085 -3.37951 
3447 2 -4.18318 -2.00593 -3.51617 
2302 1 -3.50089 -1.94961 -4.51984 
262 1 -3.15321 -2.64967 -3.89752 
2511 1 -2.70285 -3.17659 -3.30242 
2748 2 -1.97664 -2.10265 -4.11089 
2766 2 -1.73586 -2.93896 -4.16548 
1491 1 -0.956417 -1.74915 -4.30132 
1931 1 -0.602589 -3.26796 -5.25907 
1239 1 0.0123211 -2.42739 -3.74965 
541 1 1.31086 -2.84729 -4.25788 
502 1 1.42231 -2.10071 -5.11604 
1644 1 1.50914 -2.1603 -4.17221 
1215 1 3.26573 -2.91549 -4.5097 
566 1 2.27229 -2.52738 -4.40271 
1575 1 3.11216 -2.38477 -3.72148 
3353 2 4.2521 -3.07823 -4.00473 
3134 2 4.22432 -2.35394 -3.72397 
1226 1 5.24363 -2.19406 -4.13407 
2299 1 4.95037 -2.69605 -2.8436 
1841 1 5.33489 -3.00096 -4.35066 
2132 1 -7.16877 -1.8691 -3.62478 
960 1 5.89737 -2.50029 -3.44356 
1343 1 -6.11413 -1.55276 -3.74475 
1999 1 -6.37461 -0.776015 -3.55403 
1458 1 -5.3122 -1.94238 -3.76113 
670 1 -4.85351 -0.601468 -4.377 
521 1 -3.36126 -1.02664 -4.30368 
3470 2 -4.38889 -1.30443 -3.31393 
2278 1 -3.23185 -1.5304 -3.65052 
2789 2 -2.21379 -1.3151 -4.01444 
3490 2 -2.37797 -0.539677 -3.78604 
393 1 -1.19549 -0.848977 -3.85617 
3354 2 0.237697 -1.55634 -4.50385 
876 1 -0.022672 -0.809255 -3.20246 
904 1 -0.437244 -1.68186 -3.52344 
692 1 0.866765 -2.44016 -3.4302 
1897 1 1.41165 -1.31603 -4.39456 
2411 1 0.770737 -0.980534 -3.748 
665 1 1.04463 -0.239564 -4.01799 
1967 1 2.26679 -1.56516 -4.11795 
1911 1 2.9185 -0.812553 -4.37833 
169 1 2.85496 -1.6815 -3.43429 
1237 1 1.94293 -0.761551 -3.99064 
1300 1 2.59307 -0.797288 -3.38216 
2914 2 3.90495 -1.51199 -3.80692 
3483 2 3.69265 -0.822783 -3.47016 
1340 1 5.05019 -1.42082 -4.03346 
721 1 5.21241 -1.95629 -3.23956 
1428 1 6.05929 -1.7093 -3.14095 
1354 1 7.07031 -1.05296 -3.27309 
3116 2 6.31635 -1.83263 -4.27588 
1483 1 -6.94695 -1.34993 -4.31658 
2856 2 6.19025 -1.1221 -4.0863 
1078 1 -7.0542 -0.216784 -3.65277 
3186 2 -6.33135 0.290199 -4.53982 
928 1 -5.92252 0.993029 -3.35015 
1791 1 -6.62212 0.462315 -3.25616 
1790 1 -5.46399 -0.928395 -3.87658 
2010 1 -5.18115 -0.0465823 -3.95857 
1910 1 -4.07 -0.545827 -4.21864 
697 1 -4.30746 0.440501 -3.86576 
412 1 -3.34519 -0.62387 -3.45011 
2436 1 -3.55445 0.748092 -3.98291 
3588 2 -2.38267 0.272307 -3.50619 
3120 2 -2.55692 1.01091 -3.46958 
969 1 -0.657406 -0.112403 -3.19209 
954 1 -1.43541 -0.0858106 -3.82786 
3585 2 -0.134079 -0.775393 -4.46769 
3500 2 -0.263179 0.134413 -4.21982 
1375 1 0.404763 0.808812 -3.23849 
2712 1 0.861116 0.209336 -4.74445 
2237 1 0.369993 -0.19083 -3.36682 
840 1 1.75536 0.138335 -3.60565 
482 1 3.04995 0.12118 -4.32036 
2637 1 2.5949 0.176668 -3.58493 
130 1 4.10845 -0.385045 -4.46974 
414 1 3.19345 0.989672 -4.29736 
3305 2 3.74835 -0.0238748 -3.23536 
613 1 3.89403 0.354479 -4.1257 
167 1 4.7788 0.239298 -3.43892 
873 1 4.72038 -0.591575 -3.69499 
2054 1 6.99694 -0.455104 -4.30411 
2819 2 5.94937 0.369205 -3.91608 
2902 2 5.96705 -0.38038 -4.06736 
3263 2 -6.44205 1.10444 -4.22897 
3260 2 -6.56178 1.84172 -3.98397 
1913 1 -6.97754 1.18968 -3.16512 
2383 1 -5.38829 1.42508 -4.20076 
1095 1 -5.35968 1.80162 -3.50217 
2448 1 -5.20311 0.747643 -3.75719 
731 1 -4.43409 1.44367 -3.85372 
1336 1 -3.62785 1.62429 -4.10573 
1367 1 -2.86311 1.68733 -4.442 
1512 1 -3.07347 0.821579 -4.59111 
3372 2 -2.79601 1.64437 -3.24987 
1894 1 -1.91037 1.63551 -4.21117 
1812 1 -1.56332 0.904869 -3.92158 
1484 1 -1.90272 2.27113 -3.54271 
3555 2 -0.200013 0.888681 -4.0362 
1432 1 0.682271 1.39094 -4.40619 
2950 2 -0.593789 1.56089 -4.08546 
1562 1 0.684033 1.78147 -3.70722 
1777 1 0.680763 0.648826 -3.95157 
3443 2 1.71371 1.60118 -4.65164 
2187 1 1.44418 0.869821 -3.60409 
2575 1 1.42705 1.68925 -3.47302 
2135 1 2.34498 1.78267 -3.71142 
295 1 2.41115 1.00313 -3.51232 
2028 1 4.04861 1.56283 -4.00641 
504 1 4.50572 0.953078 -4.07697 
2021 1 5.14822 1.09436 -4.82069 
3369 2 5.38643 1.77788 -3.59216 
3209 2 5.59467 1.117 -3.71461 
2584 1 6.99222 0.699033 -3.92702 
1684 1 6.72246 1.67716 -3.85549 
3033 2 -6.92129 2.53668 -4.05312 
2440 1 -5.66145 2.13992 -4.38301 
1880 1 -5.30898 2.80933 -3.65 
1657 1 -6.00566 2.35177 -3.13261 
1148 1 -4.56892 2.36872 -3.67323 
2077 1 -3.94854 3.36253 -3.6282 
2395 1 -3.7351 2.57819 -3.85887 
1531 1 -2.77943 2.52431 -4.13144 
330 1 -1.87235 2.70267 -4.37027 
1706 1 -1.97482 3.181 -3.45759 
3196 2 -0.714436 2.28488 -3.9502 
2860 2 -0.898668 3.0605 -3.76737 
2673 1 0.279714 2.32311 -4.20969 