ITEM: TIMESTEP
12100
ITEM: NUMBER OF ATOMS
3594
ITEM: BOX BOUNDS pp pp pp
-7.1986261724895986e+00 7.1986261724895986e+00
-7.1986261724895986e+00 7.1986261724895986e+00
-7.1986261724895986e+00 7.1986261724895986e+00
ITEM: ATOMS id type x y z 
1148 1 -6.79824 -7.18027 -6.24625 
1616 1 -7.08172 -6.3358 -6.23961 
1282 1 -5.63482 -6.72594 -6.76743 
2574 1 -6.16742 -6.403 -6.0186 
601 1 -4.6419 -6.58131 -6.91885 
558 1 -5.72746 -5.91721 -6.60793 
3520 2 -4.96578 -7.12152 -5.96511 
2058 1 -4.06191 -6.08904 -6.1697 
977 1 -3.76287 -6.96248 -5.95474 
2002 1 -3.88349 -7.06659 -6.93885 
3454 2 -2.55564 -7.08976 -6.77695 
3268 2 -2.74066 -6.23592 -6.60554 
448 1 -0.846647 -6.5564 -6.10779 
26 1 -1.72237 -6.48448 -6.51662 
1652 1 -1.49945 -6.93518 -7.17503 
1088 1 0.224484 7.14841 -6.28048 
1107 1 -0.00690373 -6.38613 -6.25096 
1905 1 0.836033 -6.09297 -6.59247 
40 1 1.69973 -5.84936 -6.26478 
245 1 1.50755 -6.68169 -6.75217 
725 1 2.52991 -6.64459 -6.95035 
589 1 4.51695 -6.77215 -6.56796 
2957 2 3.36009 -6.56432 -6.17843 
628 1 4.23164 -5.8278 -7.09986 
3208 2 5.51465 -6.59054 -6.797 
2812 2 5.31754 -5.83066 -6.7463 
112 1 6.23333 -6.03496 -5.81742 
274 1 6.62786 -7.05181 -6.36998 
1258 1 6.61071 -6.23081 -6.61822 
66 1 6.97556 6.98695 -6.95181 
1954 1 -6.89512 -5.41281 -6.08661 
1718 1 -6.15838 -5.3353 -6.31277 
3366 2 -6.81496 -5.39503 7.11545 
2023 1 -4.95111 -5.75375 -6.81622 
1246 1 -4.18041 -5.40919 -6.55981 
2944 2 -2.89631 -5.64958 -6.16456 
3574 2 -2.9944 -4.86414 -6.05597 
2238 1 -1.80587 -5.75528 -6.83276 
3019 2 -0.795963 -5.52094 -7.16485 
2139 1 -1.76517 -5.19307 -6.22401 
3484 2 -0.854704 -4.76152 -6.90244 
1966 1 0.431274 -5.72359 7.19643 
1582 1 0.0271764 -5.24552 -6.53807 
579 1 0.883876 -5.20025 -6.40319 
2589 1 1.03065 -4.33043 -6.20113 
1634 1 2.41227 -5.78285 -6.8104 
2379 1 2.31415 -4.79281 -6.73847 
2590 1 2.83535 -4.68658 7.07181 
2933 2 3.16623 -5.79655 -6.04289 
329 1 4.44692 -5.56098 -6.02039 
1976 1 4.17203 -4.85285 -6.45907 
1215 1 3.41646 -5.33491 -6.91568 
3212 2 5.52419 -5.09146 -6.43801 
10 1 6.51484 -5.476 -6.43912 
2348 1 6.21967 -5.29191 7.11711 
3029 2 -7.10319 -3.97999 -6.87764 
659 1 -6.62147 -4.5641 -5.96482 
346 1 -6.5847 -3.47532 -5.85647 
1918 1 -4.91208 -4.79031 -6.62302 
2045 1 -5.97186 -4.04248 -6.47131 
1671 1 -5.0923 -3.79328 -6.55872 
1465 1 -4.44672 -4.07127 -6.0723 
923 1 -4.00753 -4.39657 -6.77571 
1800 1 -3.84693 -3.48371 -6.62338 
1087 1 -2.82768 -4.38795 -6.98837 
722 1 -1.86258 -3.6537 -6.88891 
386 1 -2.12965 -4.65263 -6.81154 
520 1 -1.94133 -4.07566 -6.02611 
2981 2 -3.18051 -4.18539 -5.89998 
1370 1 -2.12247 -3.09019 -6.13289 
2114 1 -2.75121 -3.65797 -6.99066 
2808 2 -0.905614 -4.21203 -6.39518 
3332 2 -1.03892 -3.35034 -6.59596 
527 1 0.222199 -3.94309 -6.30191 
1984 1 0.297195 -4.54612 -6.92956 
1425 1 1.5762 -3.56972 -5.92252 
3158 2 1.15674 -3.75197 -7.17556 
1168 1 2.87516 -3.82784 -6.89151 
2599 1 2.14064 -3.85805 -6.54731 
1695 1 3.58155 -4.29924 -6.66713 
2631 1 4.21698 -3.78718 -7.14203 
2183 1 3.63834 -3.2154 -6.44933 
3266 2 5.14698 -4.46857 -6.37747 
2767 2 4.98002 -3.7643 -6.29477 
802 1 6.24258 -4.40957 -6.73439 
1788 1 5.99645 -3.43679 -6.50083 
639 1 6.81138 -4.71856 -6.07252 
670 1 -6.33412 -2.67731 -6.32554 
2975 2 7.10308 -3.20803 -6.71421 
2015 1 -6.12911 -3.25293 -6.83993 
472 1 -5.30601 -2.94262 -6.27686 
2132 1 -5.6277 -1.98801 -6.14119 
2699 1 -4.38383 -2.86656 -6.45338 
1392 1 -3.66811 -3.11525 7.13579 
1315 1 -2.94198 -2.75027 -6.82669 
2289 1 -1.97638 -2.68413 -6.95237 
3234 2 -1.08227 -2.53798 -6.37853 
502 1 -0.00677797 -3.38366 -6.74157 
2368 1 -0.0844982 -2.33941 -6.69359 
484 1 0.0297057 -2.8294 -5.82308 
3503 2 1.04409 -2.93912 -6.90218 
3347 2 0.992289 -2.05985 -6.72417 
2390 1 2.09919 -2.06753 -6.27066 
1618 1 0.667913 -2.24641 -5.67563 
1953 1 0.735039 -3.38729 -5.97947 
1738 1 2.83226 -2.86624 -6.63001 
799 1 1.97659 -2.80835 -6.23767 
925 1 3.01079 -2.05512 -6.49277 
1806 1 4.11342 -2.51707 -6.89981 
2500 1 3.75869 -2.29107 -6.17455 
3550 2 4.88288 -3.00382 -6.07182 
2254 1 4.77737 -2.97845 7.14193 
1698 1 5.09068 -2.14535 -7.01732 
3126 2 6.87165 -2.37172 -6.68694 
734 1 5.8887 -2.26191 -6.27681 
71 1 5.6673 -2.72945 -7.12873 
194 1 -6.25646 -1.23565 -6.1403 
304 1 -6.43173 -1.91427 -6.83928 
83 1 -4.44708 -1.87748 -6.46076 
493 1 -5.42804 -0.780872 -5.87915 
2578 1 -4.18997 -1.40667 -7.24237 
2641 1 -4.44094 -1.04415 -6.47362 
911 1 -3.48418 -1.46035 -6.60747 
1445 1 -2.38673 -1.9143 -6.90312 
821 1 -2.69741 -1.24228 -6.36621 
3105 2 -1.46864 -1.87083 -6.15303 
3200 2 -1.62598 -1.01463 -6.0374 
2381 1 -0.468391 -1.52959 -6.57273 
2105 1 0.0539131 -1.59036 -5.71458 
1133 1 -0.651505 -0.950052 -7.22058 
2804 2 0.77758 -1.27435 -6.7775 
1587 1 1.938 -1.56552 -7.03038 
3151 2 0.561429 -0.396219 -6.6712 
1432 1 1.56447 -0.756967 -5.95549 
84 1 1.38778 -1.6399 -5.82966 
886 1 2.57265 -1.39275 -6.37173 
1859 1 3.38637 -1.28231 -5.82963 
2617 1 3.66868 -1.6065 -6.87201 
2535 1 3.82498 -0.779711 -6.63048 
2995 2 4.46791 -1.6358 -5.892 
483 1 4.77331 -1.3096 -6.94388 
2068 1 5.48599 -0.911508 -6.19019 
377 1 5.70344 -1.59347 -6.67545 
1414 1 5.78132 -0.841948 7.16418 
3087 2 6.83006 -1.56549 -6.57961 
2840 2 6.65146 -0.754168 -6.36525 
1340 1 -6.68671 -0.885642 -6.84768 
806 1 -6.82391 0.223608 -6.48285 
3097 2 -5.50626 -0.759977 -7.06226 
3127 2 -5.59346 0.299356 -6.92784 
499 1 -4.6235 0.246756 -7.15155 
2677 1 -3.65872 -0.614372 -6.55293 
2300 1 -3.85148 0.148118 -6.29052 
979 1 -4.32882 -0.451814 -7.07733 
395 1 -2.71529 -0.439373 -6.56872 
580 1 -2.97278 0.468268 -6.40176 
1106 1 -1.47379 -0.452197 -7.01005 
1457 1 -2.24899 0.0666793 -7.0606 
1993 1 -0.638753 -0.383515 -6.40477 
1745 1 -1.31938 0.378234 -6.777 
3088 2 0.662001 0.285703 -6.40941 
1837 1 1.89428 -0.753625 -6.74986 
2558 1 1.59023 0.171536 -6.96839 
1374 1 1.98333 -0.0918122 -6.16235 
2960 2 2.76295 0.25698 -7.06299 
1241 1 2.89256 -0.434572 -5.93581 
76 1 2.82837 0.439995 -5.79537 
1834 1 3.48811 0.0287278 -6.17234 
873 1 4.17995 -0.0945904 -7.06833 
42 1 3.68268 0.575817 -6.62716 
2086 1 4.86701 -0.531746 -6.59403 
850 1 4.52776 0.286533 -6.4446 
2137 1 5.53751 -0.0586692 -6.79152 
2797 2 6.41042 -0.0558745 -6.18386 
3007 2 -5.93413 1.12071 -6.55745 
3140 2 -6.19935 1.99094 -6.32247 
1455 1 -6.74576 1.31575 7.09826 
2151 1 -7.01708 1.33032 -6.09445 
1224 1 -5.25242 2.01947 -6.73191 
3093 2 -3.99785 1.72531 -7.1213 
2180 1 -4.48295 0.77525 -6.293 
2490 1 -3.68958 1.13802 -6.04302 
1965 1 -2.05973 1.97808 -6.61411 
337 1 -3.00264 1.42172 -6.44236 
1074 1 -0.934736 0.973967 -6.10497 
1116 1 -1.3488 1.91189 -6.04148 
1265 1 -0.985275 1.46955 -6.80313 
2320 1 -1.87552 1.08573 -6.78214 
3311 2 0.185842 0.924613 -6.26381 
2928 2 0.00776395 1.70708 -6.12922 
1059 1 0.481002 1.53146 -7.13647 
1368 1 1.39235 1.67298 7.08212 
1777 1 1.3493 1.0926 -6.72011 
221 1 1.25935 1.59302 -6.14507 
3459 2 2.53079 0.967151 -6.84154 
3393 2 2.35924 1.67257 -6.56643 
2380 1 3.59042 1.31922 -6.3362 
2765 2 4.64868 1.93401 -7.12316 
1176 1 4.49965 1.13524 -6.23591 
2637 1 5.56236 1.83811 -6.39828 
1398 1 5.5769 1.01204 -6.66656 
3135 2 6.54505 0.732516 -6.01267 
263 1 6.56434 1.49041 -6.8768 
3465 2 -6.32604 2.76087 -5.94649 
2305 1 -7.14754 1.90591 -6.85674 
2736 2 -6.43764 3.55109 -5.82441 
2386 1 -5.03134 3.19188 -7.19896 
2685 1 -5.19427 2.7456 -6.15211 
877 1 -5.7363 2.65281 -7.11727 
2783 2 -4.10717 2.32563 -6.7551 
3408 2 -4.02588 3.11559 -6.68642 
1933 1 -2.41804 2.64069 -6.35887 
1833 1 -3.257 2.19014 -6.17024 
488 1 -2.91283 3.18858 -6.85034 
1056 1 -3.00036 2.33495 -7.0617 
1353 1 -0.919167 2.33828 -6.86088 
855 1 -0.682274 3.08362 -6.85034 
2037 1 -1.34838 2.84385 -6.15523 
3078 2 -0.0322475 2.43067 -5.85282 
673 1 0.227924 2.84131 -6.95653 
1516 1 0.981166 2.20554 -6.68787 
2522 1 0.823246 3.01367 -6.15818 
1098 1 1.25829 2.95137 7.18489 
3417 2 2.05917 2.4657 -6.42547 
1286 1 3.05944 2.92763 -7.04118 
3478 2 1.91643 3.25528 -6.31682 
2231 1 3.49243 1.8926 -6.87789 
50 1 4.14373 2.13147 -6.16853 
268 1 3.45824 2.69804 -6.38996 
3215 2 4.54064 2.66479 -7.07758 
2066 1 5.05595 3.0697 -6.15964 
2092 1 4.8596 2.17502 -5.92671 
2445 1 5.79652 2.12005 7.1885 
1515 1 5.50215 3.09897 -7.16876 
577 1 -7.08104 3.02362 -6.80678 
2072 1 6.70564 2.38063 -6.45213 
1883 1 5.84071 2.58642 -6.55661 
1233 1 -6.00393 3.4464 -7.0092 
402 1 7.20335 3.74503 -6.67951 
1631 1 -6.3696 4.20805 -6.96382 
718 1 -5.34932 3.68329 -6.27069 
573 1 -5.33299 4.12106 -7.11006 
3411 2 -4.13594 3.99894 -6.60265 
343 1 -3.03294 4.00668 -6.84959 
1894 1 -2.53172 3.75926 -6.16607 
1932 1 -1.14878 4.0401 -6.59818 
3098 2 -2.09882 4.18611 7.12728 
1623 1 -0.577512 4.43871 -6.95985 
353 1 -1.01126 4.86839 -6.36259 
1817 1 -0.101983 3.77954 -6.92219 
586 1 0.316038 4.54214 -6.57975 
3466 2 1.82216 4.03229 -6.31748 
2000 1 0.730964 3.5816 -6.85536 
486 1 2.7729 4.63366 -6.52293 
1346 1 1.87764 4.00769 7.00899 
785 1 2.97694 3.62937 -6.43414 
3551 2 4.13984 3.26395 -6.75442 
3223 2 4.21663 3.98971 -6.98636 
908 1 4.68681 3.73265 -5.83478 
889 1 5.51442 3.77611 -6.40101 
131 1 6.36409 3.16058 -6.33159 
141 1 6.57107 4.12573 -6.1684 
1594 1 -6.27648 5.19996 -6.66515 
1413 1 -6.92717 5.55136 -6.62984 
2191 1 -5.36944 4.97244 -7.08659 
1697 1 -5.5961 5.81283 -6.79443 
3463 2 -4.58065 5.39173 -6.17853 
789 1 -5.68959 4.62388 -6.37467 
3471 2 -4.40992 4.63738 -6.35001 
2576 1 -3.42083 4.92054 -7.07966 
989 1 -3.39888 5.61442 -6.46179 
1102 1 -3.02503 4.69242 -6.10467 
3306 2 -2.05477 4.95011 -6.95923 
2839 2 -2.34466 5.75567 -7.00898 
1744 1 -1.27057 6.18175 -6.1474 
1253 1 -1.0857 5.50601 -6.9721 
1230 1 -0.292457 5.27133 -6.37073 
1685 1 0.629411 5.16715 -6.3324 
3138 2 1.60278 4.74879 -6.06858 
2831 2 1.697 5.48244 -6.07998 
1308 1 1.02153 5.36184 -7.10485 
1016 1 0.999988 4.34315 -7.12326 
1689 1 2.79506 5.27621 -6.0289 
215 1 2.50532 5.97805 -6.55168 
1505 1 2.35818 5.02601 -7.11858 
2790 2 3.91909 4.63364 -6.8553 
3569 2 3.78001 5.49414 -6.6597 
255 1 5.03567 4.89491 -7.2028 
1247 1 4.54621 5.27965 -5.82487 
2172 1 4.81029 4.53622 -6.16582 
1927 1 5.89621 4.607 -6.21008 
795 1 4.8822 5.46117 -6.72776 
404 1 5.43773 5.51674 -6.13897 
365 1 7.07694 4.69563 -6.63823 
115 1 6.62436 5.41141 -6.35921 
2662 1 -6.32945 6.21273 -6.64509 
3477 2 -4.82311 6.57004 -6.27027 
2396 1 -5.77424 6.76495 -6.83554 
1318 1 -5.8815 6.25761 -6.04296 
3150 2 -4.43132 6.0948 -5.87398 
1235 1 -3.60028 6.59997 -6.3674 
1619 1 -3.77708 6.09538 -7.15013 
2832 2 -2.39992 6.55048 -6.62737 
741 1 -1.11019 6.31134 -7.01869 
345 1 -1.35405 6.90475 -6.5845 
1702 1 -0.605869 6.90363 -6.1105 
2630 1 -0.0793765 6.14916 -6.32762 
798 1 0.724592 6.16373 -6.57934 
2415 1 2.02588 6.97867 -6.68975 
1261 1 1.86597 5.99231 -7.03417 
1333 1 0.962328 6.99734 -6.78871 
862 1 2.46996 6.7348 -5.9677 
1538 1 2.9898 6.72617 7.19297 
3442 2 3.57792 7.07753 -6.38282 
3587 2 3.81955 6.27157 -6.42226 
2787 2 5.75705 7.10059 -6.9952 
2594 1 5.65151 6.46199 -6.04429 
1724 1 4.79122 6.63933 -6.70034 
1879 1 -7.05535 6.38045 -6.53592 
2160 1 6.54787 6.28771 -6.29339 
1490 1 -6.19436 -6.75722 -5.31415 
1885 1 -5.49976 -6.19776 -4.78358 
3416 2 -4.96344 -6.3786 -5.74595 
964 1 -3.98958 -6.66881 -5.11695 
1784 1 -3.93522 -5.69554 -5.26299 
1725 1 -3.13286 -6.62959 -5.41331 
1609 1 -4.65027 -5.89176 -4.65993 
1227 1 -2.31877 -6.73359 -5.28609 
1836 1 -2.19344 -6.41147 -4.33992 
3455 2 -0.908397 -6.78479 -5.03265 
3594 2 -1.19903 -6.04565 -4.8388 
658 1 -1.69341 -7.11109 -5.72999 
2491 1 0.0785674 -6.85424 -5.50108 
3128 2 1.04614 -6.55016 -5.4236 
1416 1 1.90082 -6.32644 -4.74983 
2145 1 2.2851 -6.03041 -5.4167 
893 1 3.17885 -6.33709 -5.09585 
2256 1 2.15538 -6.65152 -6.08785 
2051 1 4.54091 -6.40353 -5.80493 
2462 1 3.93975 -6.88214 -5.12254 
1295 1 5.09038 -7.1694 -5.88406 
2136 1 5.34677 -6.00664 -5.60724 
1051 1 5.96916 -6.79862 -5.7523 
3487 2 7.0993 -6.56301 -5.29559 
1263 1 6.04694 -6.36159 -4.93751 
1555 1 -6.25527 -5.65726 -5.54363 
2269 1 -6.51604 -4.7971 -5.17821 
3325 2 -5.2103 -5.73742 -5.73261 
2912 2 -5.4136 -4.889 -5.58207 
582 1 -4.43634 -4.94959 -4.90117 
2612 1 -4.15694 -5.01335 -5.79399 
2627 1 -1.95925 -6.06042 -5.6269 
909 1 -1.99635 -4.9133 -5.41464 
1691 1 -2.35605 -5.51663 -4.84893 
1344 1 -3.0714 -5.712 -5.01524 
15 1 -1.05381 -5.76364 -5.91822 
3322 2 -1.40353 -5.18895 -4.55203 
995 1 -0.997849 -4.98853 -5.63061 
1210 1 -0.0984357 -5.65071 -5.77471 
687 1 -0.268773 -5.1476 -4.61497 
842 1 -0.148537 -4.7121 -5.67638 
2826 2 0.970872 -5.57421 -5.33451 
3068 2 0.860537 -4.8386 -5.19648 
2113 1 1.82578 -5.01687 -6.04385 
1073 1 1.98041 -4.33256 -5.6438 
480 1 2.05116 -5.24214 -4.97972 
224 1 2.80775 -5.60625 -4.74387 
3249 2 3.09159 -4.99076 -5.93857 
281 1 4.06785 -5.85111 -5.2548 
2150 1 4.30783 -4.65307 -5.58024 
2306 1 3.71367 -5.13371 -4.91715 
538 1 4.96611 -5.22592 -5.40034 
2288 1 5.6485 -5.67416 -4.80375 
2479 1 5.82414 -5.07319 -5.4647 
2828 2 7.06513 -5.72778 -5.14727 
3010 2 6.75372 -5.04159 -4.95859 
1872 1 -6.58728 -3.91185 -4.91891 
2737 2 -5.32963 -4.04447 -5.46035 
1071 1 -4.05256 -4.18592 -5.23594 
647 1 -4.25083 -3.22956 -4.9082 
2496 1 -3.47734 -3.75284 -4.71121 
2248 1 -3.46698 -4.82454 -4.96317 
477 1 -4.41349 -3.36789 -5.67109 
3061 2 -3.07524 -3.52469 -5.85943 
1143 1 -2.60553 -4.46796 -5.05801 
2524 1 -2.2256 -3.79001 -5.28255 
2426 1 -1.27425 -4.05214 -5.48197 
1643 1 -0.47366 -4.15752 -4.99089 
139 1 -0.348969 -3.52842 -5.53211 
2768 2 0.787018 -4.04285 -5.02792 
2178 1 1.83417 -3.52861 -5.13579 
3014 2 3.06678 -3.94769 -5.70441 
2830 2 2.7679 -3.23508 -5.55321 
1075 1 1.99016 -4.30042 -4.66638 
2407 1 3.95205 -3.8795 -5.96481 
1385 1 4.26121 -3.40324 -5.11629 
388 1 3.70647 -4.07727 -4.84279 
317 1 5.45257 -4.4477 -5.08981 
85 1 4.71608 -4.18672 -5.11773 
847 1 5.68671 -3.47855 -5.2803 
1320 1 6.90002 -3.67549 -5.74678 
1373 1 6.18643 -4.16659 -5.7811 
3080 2 6.73878 -4.14972 -4.71792 
1301 1 -6.98369 -2.11646 -4.63005 
656 1 -6.90887 -3.03153 -4.92819 
2890 2 -5.51701 -3.33399 -5.14102 
1581 1 -4.79749 -2.40709 -5.722 
2309 1 -4.61879 -2.36118 -4.77904 
2974 2 -5.8031 -2.4403 -5.05533 
3041 2 -3.39504 -2.71207 -5.76508 
172 1 -3.53493 -2.75007 -4.62345 
1979 1 -2.7109 -3.01908 -4.95125 
2706 1 -2.4704 -2.20336 -5.99602 
2549 1 -1.96911 -2.76021 -5.36008 
1864 1 -2.57902 -2.09086 -5.07981 
37 1 -1.51648 -2.05037 -4.95482 
1064 1 -0.735898 -2.84748 -4.69339 
128 1 -1.25912 -3.20174 -5.39486 
1380 1 -0.640835 -2.27288 -5.34391 
3227 2 0.573244 -3.17122 -4.98068 
3430 2 0.282936 -2.47621 -4.61736 
1767 1 1.43049 -2.61622 -5.51389 
1946 1 1.24203 -1.90839 -4.99049 
250 1 1.62956 -2.72121 -4.50537 
3356 2 2.65738 -2.44076 -5.47158 
985 1 3.92357 -2.91124 -5.558 
1472 1 3.43126 -3.00719 -4.70958 
1313 1 4.34873 -2.37796 -4.81815 
1034 1 4.94521 -2.83679 -4.87013 
1830 1 5.64745 -2.33775 -5.12029 
2972 2 4.85821 -2.27129 -5.9847 
452 1 7.18288 -2.73951 -5.61757 
1496 1 6.27437 -2.89653 -5.75153 
1207 1 -6.82686 -2.02244 -5.68065 
2993 2 -5.98194 -1.6254 -5.05202 
1145 1 -6.99403 -0.924765 -5.68019 
3267 2 -6.06769 -0.698513 -4.84431 
90 1 -7.11148 -1.3194 -4.79129 
1514 1 -5.0112 -1.3863 -5.55445 
2869 2 -3.63539 -1.89393 -5.67332 
2844 2 -3.9167 -0.978733 -5.5319 
1790 1 -2.67412 -1.32004 -5.51226 
871 1 -2.00333 -1.17196 -4.96044 
2395 1 -1.00229 -1.39108 -4.96971 
2480 1 -0.626626 -1.02773 -5.5831 
3354 2 0.12121 -1.64608 -4.64753 
1057 1 0.921692 -1.10893 -5.49432 
3557 2 2.25719 -1.73018 -5.23741 
3449 2 2.2927 -0.8824 -5.20243 
72 1 3.53616 -1.95775 -5.18358 
2336 1 3.37335 -0.699063 -5.21259 
110 1 4.10379 -1.46579 -4.73062 
3317 2 4.61785 -0.958434 -5.58581 
2352 1 5.01187 -0.997292 -4.56236 
148 1 5.63209 -1.32013 -5.1523 
2130 1 5.934 -1.69524 -5.79831 
720 1 6.67226 -2.02558 -5.39785 
34 1 6.46832 -1.14799 -5.19746 
1369 1 -6.13147 -0.361619 -6.03564 
1841 1 -6.08855 0.501775 -5.60089 
1402 1 -6.95629 -0.087327 -5.51552 
443 1 -4.77694 -0.00892315 -6.07526 
1551 1 -5.33993 0.374218 -5.22016 
385 1 -5.12035 -0.404414 -5.06886 
3543 2 -3.93612 -0.239498 -5.24965 
3256 2 -4.18089 0.618166 -5.08128 
1928 1 -2.84051 -0.425474 -5.76149 
2077 1 -2.81267 0.413004 -4.78824 
2718 1 -3.15929 0.414287 -5.59129 
1268 1 -2.3625 -0.261925 -4.91373 
2939 2 -2.01003 0.654666 -5.78586 
2796 2 -1.7931 -0.210113 -5.83659 
1094 1 -1.03715 -0.351406 -5.05968 
1880 1 -1.01205 0.551714 -5.02711 
2605 1 0.0457417 -0.620017 -5.66162 
75 1 -0.52792 0.170323 -5.73684 
2489 1 0.231103 0.0930408 -5.27998 
1890 1 0.925248 -0.71308 -4.83063 
3443 2 2.03172 0.693146 -4.68056 
1531 1 1.13392 0.0338085 -5.4791 
3383 2 2.13837 -0.203778 -4.90522 
859 1 3.08886 0.219576 -5.01211 
2848 2 4.31746 -0.327708 -5.4899 
234 1 5.33937 0.200867 -6.01724 
140 1 5.80084 -0.52947 -5.33481 
455 1 5.30866 0.50835 -5.2031 
2297 1 6.06113 0.196035 -4.91674 
1882 1 6.86179 -0.241774 -4.96276 
2423 1 -6.46086 1.26048 -5.46816 
1584 1 7.19888 2.10577 -5.69935 
1151 1 -7.02531 0.77462 -5.3844 
2523 1 -5.11911 1.00832 -5.79686 
1793 1 -5.41791 0.879727 -4.4904 
1607 1 -5.73804 1.39964 -5.12153 
2560 1 -4.62175 1.68727 -6.10664 
3144 2 -4.49405 1.34955 -4.74375 
2861 2 -4.49623 2.10042 -4.55027 
1238 1 -3.28993 1.33969 -5.26025 
2846 2 -2.25252 1.51886 -5.4966 
28 1 -0.9368 1.44845 -5.19088 
549 1 -0.169475 0.912339 -5.18068 
1257 1 -0.265498 2.03176 -4.91459 
867 1 0.633205 1.48357 -5.1085 
2406 1 1.16847 0.833772 -5.44288 
3241 2 1.68423 1.39564 -4.44309 
175 1 2.935 1.16508 -5.83832 
1185 1 2.94778 1.25285 -5.10052 
1713 1 1.97494 0.649551 -5.71131 
171 1 1.91338 1.53299 -5.54737 
3364 2 3.97848 0.5137 -5.40389 
3388 2 4.04631 1.2674 -5.2938 
941 1 5.22867 1.07747 -5.78642 
2327 1 5.21342 1.66683 -4.85308 
1568 1 6.06581 1.1552 -4.54882 
3038 2 6.18163 1.53752 -5.73744 
523 1 6.7536 0.756842 -4.88959 
13 1 7.11391 1.58044 -4.96475 
1335 1 -6.49681 2.25534 -5.04947 
92 1 -6.74041 3.06852 -4.77307 
408 1 -5.12398 1.85405 -5.47618 
2200 1 -5.61546 2.66853 -5.05672 
2690 1 -5.55344 2.17163 -4.36645 
732 1 -3.12769 2.98277 -5.82234 
857 1 -3.83692 1.85892 -5.6326 
668 1 -4.29603 2.58527 -5.68923 
1986 1 -3.50305 3.4545 -4.67684 
1483 1 -3.60993 2.61205 -5.00136 
3117 2 -2.32484 2.31146 -5.29234 
2945 2 -2.3259 3.16499 -4.98593 
2208 1 -1.20994 3.1672 -5.26223 
561 1 -1.16229 2.25412 -5.29332 
2708 1 0.501238 2.61388 -4.74136 
3444 2 -0.324526 3.28927 -5.83495 
1375 1 1.1173 2.28468 -5.49573 
1639 1 1.25493 3.26782 -5.30074 
2271 1 1.84619 2.51168 -5.30331 
530 1 2.98452 2.06587 -5.78877 
1997 1 2.92565 2.89205 -5.70182 
970 1 2.61942 2.10788 -5.02485 
2711 1 4.17835 2.99593 -5.74686 
3433 2 3.82578 2.01978 -5.01181 
2894 2 3.66405 2.92838 -4.90837 
1778 1 4.79929 2.50184 -5.05862 
829 1 6.92924 3.16979 -5.69094 
3414 2 5.73182 3.01657 -5.29361 
3060 2 5.97099 2.28617 -5.31087 
1781 1 6.98465 2.58938 -4.97713 
3238 2 -6.49242 4.29483 -5.75737 
1169 1 -6.90106 3.86273 -4.78777 
412 1 -5.90296 3.44487 -4.6512 
1543 1 -4.78316 4.36325 -5.4219 
2010 1 -5.201 3.41423 -5.42101 
1669 1 -4.26074 3.58706 -5.39926 
2495 1 -3.41914 3.92981 -5.67525 
1255 1 -3.95617 4.40496 -4.99906 
2977 2 -2.64874 3.91734 -4.95575 
2626 1 -1.81363 4.45498 -5.9781 
2647 1 -1.38933 4.09062 -5.18375 
1499 1 -1.69101 3.50148 -6.08132 
197 1 -0.668599 3.76869 -4.58698 
894 1 0.405605 3.5138 -5.07995 
2813 2 -0.444469 4.09192 -5.69416 
3378 2 -0.541505 4.84018 -5.47297 
2176 1 0.648504 4.27454 -4.86416 
2429 1 0.655751 3.92104 -6.01649 
482 1 1.34453 4.10396 -5.11219 
1113 1 2.67684 3.78589 -5.49469 
825 1 3.38369 4.39569 -5.86689 
47 1 2.06295 3.42025 -5.12215 
1066 1 3.63267 3.61014 -5.83555 
2703 1 4.57511 4.35723 -4.92488 
3013 2 3.63119 3.70163 -4.68606 
2025 1 4.20247 4.28922 -5.54 
2814 2 3.35251 4.39479 -4.63667 
2414 1 4.7407 3.45421 -5.06463 
3298 2 5.70458 3.83024 -5.28203 
1760 1 6.82911 3.84662 -5.41374 
2541 1 6.78504 4.48847 -4.80438 
3045 2 -6.79912 4.9975 -5.55953 
2209 1 -6.96537 4.79893 -4.54709 
3147 2 -6.76821 5.74041 -5.48862 
2376 1 -4.77334 5.22291 -5.08705 
120 1 -5.80958 5.37278 -4.95174 
928 1 -5.60789 4.57085 -5.37823 
2573 1 -4.82651 6.21593 -4.9877 
822 1 -5.56596 5.34264 -5.92843 
2687 1 -3.66565 4.849 -5.55491 
2466 1 -3.76579 5.51286 -5.17519 
101 1 -3.95971 4.97608 -4.22094 
1394 1 -2.49931 5.58133 -5.75225 
2865 2 -2.70816 4.67593 -4.92605 
3458 2 -2.72819 5.43741 -4.63395 
883 1 -1.52377 5.46259 -5.96978 
786 1 -1.69933 4.89512 -5.20211 
2018 1 -1.83065 5.80436 -5.11003 
1486 1 0.600203 4.85328 -5.57752 
3392 2 -0.66422 5.51469 -5.20243 
849 1 0.504147 5.72505 -5.67834 
2038 1 0.519809 5.30627 -4.91813 
23 1 1.36036 5.09425 -4.9115 
614 1 2.45451 4.6142 -5.42191 
103 1 2.38058 5.46912 -5.18696 
295 1 3.10775 6.02523 -5.66348 
686 1 3.56538 5.09009 -5.55293 
2028 1 4.19288 5.13558 -4.88687 
1422 1 4.07615 5.90906 -5.46431 
2917 2 5.5806 4.56269 -5.16214 
2927 2 5.28317 5.34317 -5.04783 
2546 1 6.56635 4.94422 -5.68313 
462 1 6.24792 5.77651 -5.62739 
1396 1 -6.01482 7.13663 -5.96133 
2747 2 7.05061 7.0625 -5.35809 
3330 2 -6.95607 6.42976 -5.45043 
297 1 -6.16395 6.69861 -4.87081 
1772 1 -5.50101 -7.05291 -5.04194 
1004 1 -5.56197 6.26871 -5.25353 
803 1 -4.63364 7.05429 -4.86592 
2275 1 -3.85506 6.74003 -5.28058 
715 1 -2.86948 6.88706 -5.59885 
897 1 -2.00576 -7.15986 -4.75521 
1030 1 -3.25974 6.1565 -5.70111 
2326 1 -1.92435 6.45982 -5.46104 
3018 2 -0.986826 6.86621 -4.8182 
3207 2 -0.566425 6.34813 -5.10317 
2453 1 -1.77765 6.20555 -4.31394 
1435 1 0.352079 6.54132 -5.58319 
2322 1 0.723148 6.09354 -4.84652 
1382 1 0.414363 6.91885 -4.74601 
2978 2 1.35352 7.18019 -5.71026 
1709 1 1.55301 6.19529 -4.6257 
2899 2 1.43043 6.27018 -5.80271 
1992 1 2.03848 -7.19531 -4.89888 
1175 1 2.79723 -7.08891 -5.43904 
1249 1 2.31937 6.38633 -5.06014 
665 1 3.33859 6.74861 -5.17093 
1513 1 4.33351 6.96085 -5.54054 
2370 1 3.99498 6.10581 -4.51873 
865 1 4.86077 6.32626 -5.88705 
3257 2 5.21479 6.15746 -4.80059 
2971 2 5.2153 6.87334 -4.76803 
1667 1 6.11756 6.69157 -5.50304 
2539 1 6.48458 6.08728 -4.89298 
1060 1 -6.62525 -6.91092 -4.37691 
1741 1 -6.8045 -6.38744 -3.29593 
2162 1 -7.04831 -5.96706 -3.91472 
2727 1 -4.71388 -6.64508 -4.46707 
3469 2 -5.77226 -6.58429 -3.85526 
3545 2 -5.55792 7.10366 -3.97937 
2835 2 -3.3665 -6.73258 -4.26629 
2672 1 -4.21381 -6.34345 -2.95451 
138 1 -4.62061 -6.95489 -3.58759 
2033 1 -2.59237 -6.64717 -3.43544 
180 1 -2.05137 -7.16041 -3.77531 
708 1 -1.52161 -6.25613 -3.7526 
945 1 -1.227 -7.12292 -3.76499 
1127 1 -0.438273 -6.19596 -3.83294 
2096 1 -0.274321 -7.16604 -4.03954 
1945 1 0.387834 -6.69291 -4.31189 
3236 2 0.542293 -6.91286 -3.26161 
1881 1 -0.0625059 -6.13182 -4.77067 
1799 1 1.2321 -6.41916 -4.31061 
2067 1 1.8322 -7.07091 -3.62276 
632 1 1.38016 -6.04925 -3.44448 
3303 2 2.75076 -6.90889 -4.09203 
2918 2 2.45906 -6.21289 -3.72312 
2656 1 3.7388 -6.32013 -4.58351 
2315 1 3.7115 -6.49907 -3.63996 
189 1 4.48511 -7.05943 -3.49942 
2926 2 5.08799 -6.72454 -4.77296 
929 1 5.20798 -6.61016 -3.35173 
3290 2 4.69438 -6.22901 -4.27089 
244 1 5.88791 -6.47221 -3.98993 
2029 1 6.85156 -6.74135 -3.99811 
1893 1 -6.04281 -5.12668 -4.6062 
1312 1 -6.32943 -5.91119 -4.56665 
1013 1 -6.80046 -5.19073 -4.24203 
3228 2 -5.85734 -5.90462 -3.46498 
2106 1 -5.3216 -5.41716 -4.56739 
2332 1 -4.81229 -5.97964 -3.73792 
2388 1 -4.85892 -4.94997 -3.82655 
3413 2 -3.69475 -6.01841 -4.00447 
3562 2 -3.69096 -5.11784 -4.07609 
401 1 -2.23611 -4.7563 -3.66153 
104 1 -2.65887 -4.96201 -4.31111 
356 1 -2.43629 -5.79521 -3.82701 
350 1 -2.86704 -5.15249 -3.33961 
322 1 -1.43973 -5.40623 -3.49613 
2102 1 0.669405 -4.81187 -4.00083 
1810 1 -0.670845 -5.24219 -3.883 
635 1 0.323364 -5.70196 -4.1561 
2298 1 1.31774 -5.595 -4.22229 
1863 1 1.48003 -4.73547 -4.18784 
1069 1 1.27027 -4.98583 -3.15864 
2712 1 2.90053 -4.70774 -4.91217 
3379 2 2.52827 -5.41616 -3.73518 
3230 2 2.3098 -4.61997 -3.60712 
1653 1 3.50495 -5.53252 -4.09074 
3340 2 4.5501 -4.75813 -4.25418 
2458 1 3.45438 -5.10672 -3.2294 
303 1 3.34678 -4.53916 -4.06988 
2825 2 4.71007 -5.44844 -4.41259 
2571 1 5.56373 -5.61335 -3.64785 
1000 1 6.48999 -5.90888 -3.96504 
1994 1 6.63679 -5.08519 -3.79405 
2695 1 5.80261 -5.08584 -4.21946 
1673 1 -6.70875 -4.33402 -4.07872 
844 1 -6.99356 -3.33155 -3.98609 
587 1 -5.97647 -3.36285 -4.06252 
2310 1 -4.66988 -4.24472 -4.44509 
1999 1 -5.54862 -4.34214 -4.28788 
1481 1 -5.0605 -3.81219 -3.70171 
3536 2 -3.79598 -4.39842 -3.82267 
3376 2 -3.93003 -3.68259 -3.5628 
1728 1 -2.72508 -3.70156 -3.40834 
458 1 -2.61711 -3.842 -4.31077 
1468 1 -1.02592 -4.59415 -3.21933 
3480 2 -1.43982 -4.30376 -4.3777 
3285 2 -1.56465 -3.44007 -4.35291 
851 1 -1.0183 -3.66375 -3.36282 
1722 1 -0.349535 -3.57159 -4.34681 
1611 1 0.376469 -3.84536 -4.08391 
954 1 -0.243596 -4.53229 -3.91598 
1237 1 1.29405 -3.69199 -4.20028 
393 1 1.02345 -4.06928 -3.46975 
3015 2 2.21738 -3.93101 -3.4206 
891 1 2.85153 -3.7299 -4.46085 
3244 2 4.59821 -3.9414 -4.03601 
2545 1 3.37203 -3.90668 -3.45444 
1526 1 5.67968 -4.1745 -4.29791 
2552 1 5.50149 -4.76092 -3.40796 
2239 1 5.64569 -3.14271 -3.34591 
2721 1 6.16691 -3.92877 -3.63279 
335 1 7.07034 -3.78322 -3.33563 
874 1 -6.48289 -2.6791 -4.17191 
1733 1 -5.02642 -3.08953 -4.22898 
1144 1 -5.56472 -2.38975 -3.79015 
56 1 -5.2058 -1.79363 -4.16476 
3083 2 -4.1026 -2.93592 -3.62268 
3229 2 -4.33455 -2.09918 -3.58539 
1470 1 -2.8857 -3.06551 -4.05862 
195 1 -3.21126 -2.3282 -3.71233 
2916 2 -1.97135 -2.64232 -4.17382 
2542 1 -0.834934 -1.97734 -4.15125 
1028 1 -0.802038 -2.77343 -3.65799 
1431 1 -0.0153524 -3.10515 -3.63838 
2020 1 0.0286553 -2.2402 -3.5362 
1843 1 0.720888 -2.50209 -3.22574 
607 1 1.1806 -2.27985 -3.97293 
2044 1 1.01313 -3.15187 -3.63814 
879 1 3.21352 -2.20592 -4.41913 
535 1 2.35662 -3.06173 -4.3778 
236 1 2.97446 -2.0061 -3.50978 
349 1 3.02691 -3.14913 -3.83703 
3320 2 2.01605 -3.05935 -3.34893 
2857 2 4.30548 -3.22257 -3.93082 
3353 2 4.10504 -2.47818 -3.85626 
2211 1 5.03254 -1.8783 -4.60797 
1493 1 5.41254 -3.17923 -4.14218 
190 1 5.27149 -2.28746 -3.73827 
423 1 6.53797 -3.0709 -3.33955 
2858 2 6.44126 -2.54174 -4.44777 
3173 2 6.51345 -3.2931 -4.53884 
831 1 -7.11281 -2.52684 -3.6341 
1707 1 -6.2657 -1.62587 -3.85213 
863 1 -6.46444 -0.601268 -3.53029 
1835 1 -4.8824 -1.36917 -4.76494 
1572 1 -5.56894 -0.93104 -3.88721 
808 1 -3.92329 -0.874602 -4.3344 
572 1 -4.01666 -1.79103 -4.65391 
3447 2 -4.38707 -1.31737 -3.42063 
2601 1 -2.97447 -0.805522 -4.74104 
1446 1 -3.21909 -1.65155 -4.55011 
2638 1 -3.42206 -1.16745 -3.67778 
2766 2 -2.39705 -1.15232 -3.93007 
1484 1 -1.18439 -0.965476 -4.23195 
3198 2 -2.06824 -1.83817 -4.00018 
2237 1 -0.619765 -1.42963 -3.52512 
858 1 0.238988 -1.36362 -3.44809 
3585 2 -0.0164322 -1.01551 -4.39278 
202 1 1.24468 -1.34014 -4.40362 
984 1 1.07058 -1.51054 -3.65209 
2434 1 0.757237 -0.671296 -3.72965 
971 1 2.70944 -1.23747 -3.76159 
169 1 2.01391 -2.03074 -4.24061 
922 1 2.04826 -0.945588 -4.04195 
1337 1 3.18372 -1.1939 -4.46617 
2084 1 4.18768 -0.715049 -4.45563 
3134 2 3.97199 -1.61794 -3.64096 
2914 2 3.80098 -0.887344 -3.27467 
153 1 5.08525 -1.46036 -3.72657 
1299 1 5.65392 -1.50385 -3.10304 
1325 1 -7.07951 -1.6954 -3.72771 
3116 2 6.13733 -1.77497 -4.1294 
2856 2 6.25245 -1.00678 -4.11409 
1720 1 6.9249 -0.983092 -3.18807 
2054 1 -7.05306 -0.777833 -4.12699 
3186 2 -6.3212 -0.0159569 -4.55066 
2351 1 7.13763 -0.0803712 -3.41794 
960 1 -5.59364 -0.0680399 -3.77043 
1428 1 -4.98119 0.15835 -4.25006 
111 1 -4.77034 -0.696483 -4.24243 
2302 1 -4.05856 0.157037 -4.03237 
2674 1 -3.2485 -0.121995 -4.27669 
2748 2 -2.38584 -0.514536 -3.55385 
2789 2 -2.63336 0.21892 -3.57375 
400 1 -1.58616 -0.370163 -4.38099 
2241 1 -1.14124 -0.573941 -3.52909 
2108 1 -1.55304 0.254348 -3.75512 
1971 1 -1.77201 0.536106 -4.54834 
3500 2 -0.200038 -0.200717 -4.29732 
692 1 0.568633 0.0828387 -3.56761 
1296 1 0.884214 0.118932 -4.59144 
247 1 1.56672 -0.23977 -3.99677 
2013 1 1.30144 0.548058 -3.73639 
506 1 2.1398 0.25163 -3.29094 
2722 1 2.91202 -0.36707 -4.16823 
583 1 2.70165 0.653801 -3.93846 
1119 1 2.61853 -0.303681 -3.44401 
296 1 3.74691 0.0106419 -4.43394 
840 1 4.4461 0.197983 -4.16398 
1648 1 5.19384 -0.163338 -4.60987 
1703 1 4.97969 -0.573813 -3.59682 
2902 2 5.95395 -0.186546 -3.79343 
1575 1 6.88753 0.369266 -4.161 
3263 2 -6.56632 0.759238 -4.27561 
3260 2 -6.57304 1.53254 -4.1869 
1627 1 -5.62998 0.730639 -3.31958 
1913 1 -5.38803 1.52042 -3.77714 
2278 1 -4.60909 1.92379 -3.37452 
1343 1 -4.75292 0.899108 -3.82324 
827 1 -3.37195 1.04865 -4.29052 
1316 1 -3.77828 1.93364 -3.69481 
882 1 -3.99268 1.19226 -3.61036 
3490 2 -2.70831 0.964436 -3.44116 
969 1 -2.34969 1.07324 -4.48886 
2529 1 -3.35512 1.84431 -4.58401 
1775 1 -1.5005 1.55712 -4.63196 
2950 2 -0.556175 1.32451 -3.90752 
14 1 -1.61041 1.20054 -3.85247 
3555 2 -0.408162 0.550657 -4.20563 
2 1 0.659656 0.888261 -4.40728 
2328 1 0.375935 1.80503 -4.19606 
1606 1 0.653608 1.10962 -3.60459 
1700 1 1.38351 1.38944 -3.4039 
2575 1 2.71316 1.65914 -4.25781 
613 1 2.19034 1.25614 -3.44532 
1364 1 3.39167 0.862229 -4.42021 
1548 1 4.16843 1.13049 -3.97034 
2707 1 3.62855 1.89457 -3.97673 
1466 1 5.07132 0.781912 -4.42095 
2317 1 4.62089 1.98553 -4.24392 
2819 2 5.77698 0.641008 -3.56098 
3209 2 5.47136 1.6583 -3.47507 
556 1 4.17755 1.91286 -3.3918 
817 1 6.78333 1.2997 -3.78868 
3033 2 -6.68108 2.43321 -3.86344 
2751 2 -7.04777 3.13037 -3.68842 
35 1 -5.61492 2.47855 -3.35885 
978 1 -4.70491 2.79844 -3.29527 
2061 1 -5.57917 2.78814 -3.98626 
3062 2 -4.46467 2.94257 -4.51934 
1761 1 -3.89703 2.884 -3.68742 
1783 1 -3.2344 2.78003 -4.0772 
1910 1 -2.62238 2.05326 -4.29711 
154 1 -2.03183 2.96385 -3.92181 
46 1 -1.46657 2.58578 -4.52298 
2860 2 -0.714081 2.88121 -3.58979 
1661 1 -1.7841 2.16791 -3.78017 
1521 1 -0.472297 2.81514 -4.66064 
3196 2 -0.650998 2.12002 -3.79305 
2442 1 0.418971 2.82788 -3.84756 
3063 2 1.53973 2.08794 -4.25651 
3479 2 1.58444 2.90335 -4.23294 
414 1 0.795732 2.12338 -3.51747 
1614 1 2.64252 2.93924 -4.59543 
254 1 2.57147 2.29426 -3.75314 
441 1 2.20844 2.95696 -3.2969 
946 1 3.33724 2.68834 -3.79959 
779 1 4.33367 2.73834 -3.84266 
698 1 5.8422 2.02682 -4.25912 
2584 1 5.24808 2.66244 -4.29908 
1200 1 6.64504 2.04917 -4.39569 