ITEM: TIMESTEP
9600
ITEM: NUMBER OF ATOMS
3594
ITEM: BOX BOUNDS pp pp pp
-7.1904936958860715e+00 7.1904936958860715e+00
-7.1904936958860715e+00 7.1904936958860715e+00
-7.1904936958860715e+00 7.1904936958860715e+00
ITEM: ATOMS id type x y z 
1148 1 -6.93087 -6.09386 -6.29505 
1772 1 -5.96989 -6.7781 -5.96309 
558 1 -5.87374 -5.29677 -6.38021 
2662 1 -6.60781 -7.01326 -6.32335 
3520 2 -5.01388 -6.37953 -5.84215 
1140 1 -4.93678 7.04752 -7.15085 
1282 1 -5.8838 -6.24075 -6.67642 
196 1 -4.79418 -6.42502 -7.08592 
897 1 -3.74108 -6.95367 -6.1121 
2122 1 -4.03524 -7.19772 -6.93082 
2058 1 -4.05917 -6.23627 -6.87397 
3454 2 -2.87889 -6.46676 -6.46754 
2832 2 -2.6373 7.09738 -6.51585 
2238 1 -1.75877 -6.84966 -7.12771 
448 1 -0.884591 -6.18397 -5.9356 
3368 2 -0.725997 -6.04389 -6.83658 
2265 1 0.363308 -6.13889 7.14958 
563 1 0.749079 -6.59387 -6.61356 
2415 1 1.51429 -6.93903 -6.65013 
2379 1 2.63613 -5.93369 -7.13281 
2145 1 2.2874 -6.26785 -6.25128 
2957 2 3.42853 -6.22223 -6.02815 
480 1 1.84842 -5.56431 -5.79279 
2590 1 2.60483 -6.87926 -7.09547 
3442 2 3.31543 -6.9383 -6.28342 
589 1 4.40031 -6.57014 -6.24258 
2623 1 4.2455 -5.73225 -6.77721 
1215 1 4.36088 -6.5093 -7.06264 
3208 2 5.54128 -6.10911 -6.60341 
1879 1 6.80054 -6.8268 -6.31827 
1413 1 6.40267 -6.47311 6.64091 
585 1 7.04549 6.61871 -6.48862 
3495 2 -6.97578 -4.52679 -6.83396 
1437 1 -5.63348 -4.3719 -6.44016 
1784 1 -4.21031 -5.31442 -6.53867 
1654 1 -5.27638 -5.72198 -6.98838 
2912 2 -5.27453 -4.88573 -5.57281 
1071 1 -4.027 -5.9466 -6.02904 
606 1 -3.62123 -5.56576 -7.15388 
3268 2 -2.84938 -5.68772 -6.33398 
2944 2 -2.95518 -4.95793 -6.14337 
2627 1 -1.78267 -5.90985 -6.58037 
3484 2 -0.781603 -4.4823 -6.62882 
1840 1 -1.96946 -3.94726 -6.14734 
386 1 -1.88013 -4.88409 -6.45708 
1088 1 0.283438 -5.82714 -6.27903 
3019 2 -0.547816 -5.27095 -6.76587 
2589 1 1.16982 -5.11927 -6.34564 
579 1 1.33081 -6.0166 -6.41528 
502 1 1.27865 -4.41744 -6.03058 
2600 1 2.16808 -5.16139 -6.58526 
2933 2 3.15644 -5.42893 -5.92179 
628 1 3.89742 -4.92746 -6.3456 
1770 1 3.3999 -5.50657 -7.05114 
2812 2 5.396 -5.44648 -6.38114 
3212 2 5.28185 -4.71153 -6.24357 
2686 1 6.57927 -4.70485 6.9161 
1616 1 -6.86223 -5.3132 -5.95019 
1258 1 6.4199 -5.15518 -6.70526 
3029 2 -7.00645 -3.75611 -6.55675 
2015 1 -5.9662 -3.79898 -6.89757 
601 1 -4.93227 -4.92935 -6.58258 
1918 1 -4.70815 -4.06745 -6.52958 
1465 1 -3.9193 -4.31666 -6.72847 
1087 1 -3.8315 -3.41557 -6.60358 
1800 1 -3.72256 -2.54252 -6.61676 
3574 2 -2.96776 -4.22612 -5.88286 
2114 1 -2.90447 -4.05343 -6.93913 
909 1 -2.18317 -3.16361 -5.99491 
1392 1 -2.96652 -3.1723 -6.79363 
2187 1 -1.9511 -2.80258 -7.14325 
2808 2 -0.849806 -3.71176 -6.51367 
685 1 0.233773 -4.58328 6.98346 
1582 1 0.165967 -4.8628 -5.97587 
2048 1 0.437556 -4.0451 -6.07922 
3158 2 1.25177 -3.40994 -6.89855 
1767 1 2.17224 -4.18262 -6.38408 
1738 1 1.92251 -2.69526 -6.0153 
19 1 3.13317 -4.63067 -6.89172 
1695 1 3.26983 -3.70191 -6.62828 
1976 1 4.10291 -4.34847 -5.63355 
2407 1 4.11475 -4.27298 -6.71054 
1168 1 3.90264 -3.09344 -6.51117 
85 1 4.51255 -3.84767 -4.94278 
3266 2 5.17354 -3.92105 -6.24255 
2767 2 4.96365 -3.18062 -6.27368 
284 1 5.4362 -3.20265 7.12773 
802 1 6.3354 -4.33895 -6.56527 
2348 1 5.96063 -4.0219 -7.17541 
2975 2 7.14699 -2.98257 -6.72634 
472 1 -5.31166 -3.42194 -6.34988 
2074 1 -6.32548 -1.82665 6.92786 
2045 1 -6.06811 -2.81247 -6.04169 
2699 1 -5.20342 -2.80381 -5.93546 
670 1 -5.36307 -2.01007 -6.03398 
3360 2 -5.24831 -1.84204 -7.13873 
1434 1 -3.8764 -2.83848 6.95205 
923 1 -4.45266 -3.31725 -6.13516 
1445 1 -3.30884 -1.83763 -6.5432 
1315 1 -2.58238 -2.49471 -6.20848 
1370 1 -2.2564 -1.93364 -6.79738 
3332 2 -1.04557 -3.00592 -6.23915 
3234 2 -1.29781 -2.25887 -6.18751 
2368 1 0.0104427 -3.18806 -7.05419 
1106 1 -0.150457 -2.19762 7.09438 
1940 1 0.100713 -3.06409 -6.00942 
1618 1 0.37515 -1.45597 -5.59178 
3503 2 1.13404 -2.5912 -6.75827 
886 1 1.52061 -2.00474 -5.66051 
72 1 2.99678 -2.60378 -6.37988 
1837 1 2.13021 -2.1279 -6.68757 
1698 1 4.08328 -2.05289 -6.75561 
985 1 3.87914 -2.49192 -5.83814 
1362 1 5.23925 -2.29701 -7.09832 
3550 2 4.95691 -2.32044 -6.1549 
2530 1 6.02257 -2.78521 -6.94101 
3126 2 7.11195 -2.15621 -6.69928 
1788 1 6.09233 -3.47211 -6.22097 
1872 1 5.94426 -2.46209 -6.16349 
1207 1 -6.18887 -1.90673 -6.5423 
194 1 -6.40668 -0.993757 -6.42463 
3097 2 -5.40586 -1.04386 -7.19665 
1514 1 -4.64626 -1.2965 -6.09756 
2578 1 -4.43383 -2.34693 -6.13642 
2641 1 -3.49649 -0.91892 -6.67143 
499 1 -4.34514 -0.493499 -7.04118 
2195 1 -4.25195 -1.53674 -6.70557 
911 1 -2.60986 -1.05317 -6.76921 
1822 1 -1.85592 -1.10421 -7.15452 
174 1 -1.1017 -0.888288 -7.12044 
3105 2 -1.19621 -1.42501 -6.02546 
3200 2 -1.74157 -0.758675 -5.9579 
1057 1 -0.363006 -0.838938 -6.20593 
2381 1 -0.173234 -2.40835 -6.53059 
2480 1 -0.0590014 -1.6991 -6.30388 
2804 2 0.706091 -1.23219 -6.95368 
3347 2 0.806297 -1.92227 -6.60417 
1859 1 1.74587 -1.36032 -6.3123 
769 1 1.69884 -0.682909 -6.91653 
1241 1 1.66339 -0.582856 -6.02591 
2500 1 3.50813 -0.896765 -6.38127 
925 1 2.50051 -1.74804 -6.04381 
2183 1 4.17306 -1.19658 -6.92583 
1806 1 4.95464 -1.46894 -7.06095 
483 1 5.60052 -1.06278 -6.66502 
847 1 5.94016 -1.83292 -6.77199 
455 1 5.49766 -0.163302 -6.35821 
3087 2 6.82181 -1.25923 -6.50911 
2840 2 6.77919 -0.533564 -6.26083 
2477 1 -6.67819 -0.367077 7.12025 
806 1 -6.22785 -0.246512 -5.78047 
493 1 -4.42345 -0.507676 -6.23416 
3127 2 -5.4957 -0.300045 -6.81757 
3007 2 -5.73975 0.476914 -6.85254 
519 1 -4.78876 0.000592592 6.60146 
83 1 -3.70209 -0.125369 -6.32986 
2490 1 -2.94388 0.8801 -6.29338 
2077 1 -3.05498 1.11243 -5.36888 
1457 1 -1.95628 -0.169422 -7.04229 
1094 1 -0.639946 -0.168994 -6.80474 
2796 2 -1.71489 0.107925 -5.94728 
1993 1 -0.448575 0.63598 -7.03553 
3151 2 0.634708 -0.486057 -6.58208 
1116 1 -0.611491 0.00290248 -6.01735 
3088 2 0.422349 0.223649 -6.30991 
1834 1 1.6889 0.341682 -6.08406 
42 1 2.47556 0.0420104 -5.89983 
2336 1 2.54539 -0.92445 -6.23669 
2575 1 2.79564 1.4335 -5.31848 
2617 1 4.8665 -0.504876 -6.86915 
2535 1 3.23348 -0.100948 -6.31356 
873 1 4.30215 0.123312 -6.75125 
234 1 5.67111 0.411026 7.17027 
140 1 5.7112 -0.766474 -5.85877 
1648 1 4.99701 0.621427 -6.42316 
2797 2 6.50343 0.114036 -5.98974 
3135 2 6.18145 0.634361 -6.38606 
1455 1 -6.93299 0.613068 -5.93102 
1340 1 -6.7691 -0.0281409 -6.42236 
450 1 -6.44188 1.21471 6.69201 
3140 2 -6.02302 1.07144 -6.50628 
1474 1 -4.65304 0.436592 -6.95717 
668 1 -4.67873 2.65425 -5.93488 
1928 1 -3.90412 0.810031 -6.21358 
3148 2 -3.68113 1.40228 7.14554 
857 1 -4.15059 1.60579 -6.15757 
580 1 -2.84744 1.82905 -6.38612 
1933 1 -2.44926 2.58375 -6.62203 
1523 1 -1.76996 1.60291 -6.65959 
337 1 -2.51251 1.61347 7.18878 
1265 1 -1.45123 0.620625 -6.84052 
395 1 -2.32922 0.809216 -6.83019 
2037 1 -1.16135 1.39239 -4.93099 
855 1 -0.836166 1.59043 -6.98682 
3311 2 0.43894 1.15947 -6.14643 
2928 2 0.297161 1.88243 -6.43663 
2558 1 1.45378 1.13774 -6.54993 
2522 1 1.33213 1.88228 -6.86998 
2960 2 2.49882 0.300419 -7.06123 
3459 2 2.55189 1.11178 -6.81143 
1286 1 3.54152 1.47541 -7.00196 
565 1 3.14633 1.74141 6.67133 
850 1 3.66702 0.595992 -6.48404 
1625 1 3.56838 0.62089 7.02525 
50 1 4.24669 1.23788 -6.40572 
2414 1 4.80763 1.84677 -6.16919 
1176 1 5.43223 1.43949 -6.74502 
3373 2 4.68251 1.39504 6.83216 
2637 1 -7.13314 1.33288 -6.69461 
571 1 -6.91586 0.602309 -6.98188 
2305 1 7.1954 2.07732 -6.26476 
3465 2 -6.06163 1.7584 -6.40126 
2736 2 -6.18999 2.47051 -6.35339 
1027 1 -7.19741 1.95403 7.1208 
877 1 -5.0114 2.62715 7.04481 
408 1 -5.11414 3.42832 -5.68318 
3093 2 -3.78916 2.09026 -6.97373 
2783 2 -3.91469 2.83054 -6.7985 
1669 1 -4.03849 2.64703 -5.46788 
1264 1 -2.64437 3.29154 -6.59026 
2505 1 -2.79217 2.32676 6.87732 
1932 1 -1.39008 2.32373 -6.46797 
285 1 -2.94669 3.25007 7.02373 
1454 1 -3.82699 3.01364 6.50183 
902 1 -0.62437 2.50173 -7.06399 
1965 1 -0.771355 0.913713 -6.32949 
3078 2 -0.0708471 2.44721 -5.96663 
1817 1 0.291645 2.62801 7.06625 
586 1 0.0212544 3.41089 -7.01237 
894 1 1.03586 2.46646 -6.09882 
3393 2 2.38264 1.84565 -6.69558 
3417 2 2.15839 2.66685 -6.75944 
1503 1 3.4823 2.33854 6.22376 
2380 1 3.94792 2.21989 -6.40989 
2711 1 4.10841 2.93938 -6.09282 
785 1 3.22098 3.12316 -6.53244 
3215 2 4.2518 2.96656 7.04665 
74 1 3.27296 2.40539 -7.00145 
2092 1 5.66166 2.25016 -6.78562 
1778 1 4.94929 2.83892 -6.13648 
1515 1 6.54942 2.25379 -6.74612 
1883 1 6.26304 3.0033 -6.62367 
3238 2 -6.18399 3.29446 -6.35356 
718 1 -6.48571 4.53443 -7.09461 
402 1 -6.47559 3.76627 7.06402 
1662 1 -6.73642 2.99175 6.70477 
3045 2 -6.60571 3.85307 -6.05911 
1410 1 -5.04734 3.2452 -6.57046 
2386 1 -5.49518 4.06968 -6.55443 
3408 2 -4.03407 3.68277 -6.7244 
3411 2 -4.415 4.35531 -6.56694 
732 1 -4.06951 4.34105 -5.3854 
474 1 -1.44323 3.039 -6.37768 
1623 1 -1.88923 3.64975 -6.28169 
1894 1 -2.66742 4.13142 -6.40947 
2452 1 -0.888511 3.4939 -6.81932 
883 1 -1.13919 4.26309 -6.18034 
1230 1 -0.596665 4.22125 -7.09774 
2630 1 0.10307 4.51467 -6.62417 
1685 1 0.684214 4.03621 -6.79742 
3444 2 -0.173588 3.27287 -5.93221 
3466 2 1.8224 3.95754 -6.4872 
2429 1 0.905756 3.27707 -6.22395 
1486 1 0.870304 4.21293 -5.86352 
3478 2 1.95394 3.18119 -6.34075 
1689 1 2.79616 3.72126 -6.98658 
1066 1 2.95259 3.86835 -6.16491 
908 1 3.89978 3.73604 -5.69808 
3551 2 3.94746 3.7239 7.16144 
2377 1 5.84967 3.9912 -6.52704 
2025 1 4.61987 3.6625 -6.12181 
131 1 7.07074 3.9149 -6.97243 
889 1 6.59105 3.67925 -6.28 
2072 1 -7.15137 2.95846 -6.89065 
1396 1 -6.55695 6.42875 -6.69939 
1594 1 -6.3378 5.5307 -6.91536 
3463 2 -4.57754 5.73638 -6.34708 
822 1 -5.67178 5.75026 -6.01144 
3471 2 -4.40179 5.0437 -6.62579 
2687 1 -3.47132 5.78877 -6.27874 
1102 1 -3.25791 4.96666 -6.85303 
3306 2 -2.17193 5.47437 -7.03478 
3098 2 -2.01261 4.75907 -7.19226 
197 1 -1.94307 4.65966 -5.89256 
358 1 -3.35829 4.60518 -6.08172 
1394 1 -2.62878 5.24055 -6.12248 
345 1 -1.24378 5.18946 -6.36919 
482 1 0.521051 4.97239 -6.03009 
1744 1 -0.270588 5.38153 -6.53904 
1567 1 0.630927 5.76403 -6.43481 
1763 1 0.979355 5.06409 -5.24545 
3138 2 1.73949 4.80002 -6.23747 
2831 2 1.68093 5.54499 -6.01244 
862 1 2.71335 4.94118 -6.55438 
295 1 3.28838 4.63987 -5.60969 
3223 2 3.80745 4.39442 -6.75544 
2790 2 3.79352 5.10517 -6.66461 
665 1 3.91729 5.39095 -5.43093 
865 1 4.96641 4.47612 -6.42534 
1927 1 5.49339 5.13306 -6.42984 
255 1 4.92502 4.93744 -7.10724 
2594 1 5.14219 6.38396 -5.99429 
686 1 4.7632 5.37542 -6.04818 
1631 1 6.95605 4.72267 -6.81564 
115 1 5.93065 5.93233 -5.94418 
141 1 6.22112 4.88165 -6.31804 
691 1 7.14948 6.11914 7.01915 
2191 1 -5.50526 6.0413 -6.88903 
3477 2 -4.88255 -7.12166 -6.11804 
833 1 -5.31698 5.32738 7.1572 
2437 1 -5.69457 6.93234 -6.84228 
3150 2 -4.72977 6.50709 -6.00512 
2002 1 -3.63981 6.6403 -6.31752 
2275 1 -3.6735 6.36561 -5.34195 
2839 2 -2.47448 6.24913 -6.77395 
2322 1 -0.812124 -7.07598 -6.1795 
1652 1 -1.81216 6.28936 -5.80145 
1308 1 -0.0239645 6.50591 -6.18342 
1107 1 0.167804 -6.94653 -6.23074 
1261 1 0.775763 6.69211 -6.67056 
1634 1 1.55422 6.5141 -6.93085 
641 1 1.29888 5.79391 -7.1209 
1905 1 0.610605 -6.98629 7.05552 
40 1 2.19286 7.04589 -6.42875 
96 1 2.16749 5.99605 -6.89611 
2088 1 2.76941 6.72862 7.21139 
3587 2 3.57817 6.70109 -6.31093 
3569 2 3.72075 5.86634 -6.58463 
1295 1 4.65972 7.01463 -5.71245 
2787 2 5.56864 -6.9731 -6.70807 
404 1 5.77837 7.01206 -5.58026 
795 1 4.80636 5.946 -6.7216 
365 1 6.80654 5.68521 -6.42163 
3539 2 5.89303 6.65939 -6.87522 
240 1 6.85079 -6.99975 7.08878 
2574 1 -6.20115 -5.88558 -5.68209 
2727 1 -5.84106 -6.86193 -5.05864 
1312 1 -6.36766 -6.76734 -4.28982 
1555 1 -6.0017 -6.03636 -4.86048 
1885 1 -5.2105 -6.15499 -4.57299 
715 1 -3.55051 -6.49081 -5.49479 
658 1 -2.93613 6.87014 -5.5095 
582 1 -4.28728 -5.4183 -4.79443 
977 1 -4.2649 -6.40153 -4.99186 
1227 1 -2.61489 -6.60701 -5.28764 
2453 1 -2.14396 -6.94893 -4.01146 
1725 1 -1.92514 -6.02398 -5.60989 
26 1 -1.60556 -6.73444 -6.15545 
3455 2 -0.9896 -6.84141 -4.97208 
2491 1 -0.0667745 -6.38097 -5.42644 
687 1 -0.0678969 -6.13987 -4.59257 
133 1 0.227857 -7.03175 -4.72005 
3128 2 1.06273 -6.59525 -5.51421 
2462 1 3.10456 -6.77109 -5.03112 
1175 1 2.4814 -7.06653 -5.63681 
2656 1 3.72196 -5.90512 -5.03902 
893 1 2.2446 -6.04186 -5.27629 
329 1 4.3446 -5.44946 -5.9628 
440 1 4.37568 -6.33781 -5.45213 
2136 1 6.21889 -6.63664 -5.67956 
1051 1 5.23576 -6.51177 -5.62562 
274 1 6.68373 -5.73123 -6.08949 
3487 2 -6.89819 7.17756 -5.25526 
2479 1 6.24882 -6.57953 -4.84589 
1667 1 6.52618 7.02148 -4.98188 
1718 1 -6.39375 -5.18384 -5.14187 
2269 1 -6.52917 -4.64823 -4.15722 
3416 2 -5.0377 -5.67667 -5.61764 
3325 2 -4.94019 -4.18181 -5.57783 
1671 1 -4.10661 -4.79827 -5.97111 
2496 1 -4.02273 -4.57992 -5.09837 
2248 1 -3.04881 -3.91151 -4.45223 
2612 1 -3.63938 -5.53547 -5.30654 
1143 1 -2.04292 -4.9673 -5.2998 
401 1 -3.16238 -4.74046 -4.97526 
15 1 -1.21924 -5.27886 -5.80426 
3594 2 -1.27613 -6.10294 -4.87346 
1210 1 -0.266092 -5.56526 -5.4227 
1966 1 -0.583428 -4.78147 -5.43288 
2826 2 1.02978 -5.87717 -5.23899 
3068 2 0.826934 -5.11544 -5.11797 
2113 1 1.52245 -5.41321 -4.2712 
224 1 2.87822 -5.94253 -4.75072 
2298 1 2.26206 -5.26541 -4.76417 
538 1 4.80194 -4.7155 -5.1158 
2051 1 3.95779 -5.11549 -5.14269 
388 1 3.70459 -4.27323 -4.66355 
10 1 5.97222 -5.89644 -5.42357 
1373 1 5.05547 -5.56535 -5.36617 
1526 1 6.32187 -4.89705 -5.52441 
2828 2 -7.09448 -6.53118 -5.08029 
3010 2 7.03726 -5.70175 -4.91669 
1673 1 -6.51758 -4.31014 -5.16811 
2023 1 -6.28102 -4.60812 -5.90556 
1999 1 -5.66476 -4.41353 -4.35735 
2737 2 -5.49081 -3.80404 -5.18898 
477 1 -3.95065 -4.00592 -5.78915 
2310 1 -3.93433 -3.76428 -4.75044 
458 1 -2.22299 -4.21328 -4.93727 
2524 1 -1.69133 -3.50958 -5.38654 
37 1 -2.34357 -3.16735 -5.05492 
2139 1 -1.45734 -4.39428 -5.638 
995 1 -0.870907 -3.85659 -5.16172 
1433 1 0.359675 -3.93816 -6.80746 
3227 2 0.967878 -3.59993 -4.60409 
527 1 -0.110061 -3.96712 -5.50118 
2768 2 0.869657 -4.34622 -4.90823 
2599 1 1.85363 -4.76067 -5.47173 
1425 1 2.01633 -3.62973 -4.94353 
1984 1 1.79605 -3.67089 -5.73655 
3249 2 2.92818 -4.6166 -5.67189 
3014 2 3.03091 -3.81143 -5.54656 
148 1 4.78173 -3.04048 -5.19386 
1472 1 3.83812 -3.07275 -4.9432 
2150 1 4.1875 -3.5425 -5.78263 
2721 1 5.40782 -4.09318 -5.26518 
2552 1 5.59168 -4.32643 -4.1766 
1954 1 7.08178 -4.46547 -5.70605 
1320 1 6.43208 -3.91083 -5.60117 
3080 2 6.92188 -4.87355 -4.64344 
639 1 7.19849 -3.60506 -5.53439 
659 1 -6.22548 -3.60495 -5.84341 
1496 1 -7.07833 -2.2742 -4.94271 
346 1 -6.79584 -2.89824 -5.56637 
2890 2 -5.41536 -3.11029 -4.94054 
2974 2 -5.98467 -2.51015 -4.90574 
2132 1 -4.78771 -2.28953 -5.26778 
647 1 -4.40203 -3.17424 -5.22763 
172 1 -3.79152 -2.94025 -4.35814 
3061 2 -3.50841 -2.64439 -5.49943 
2981 2 -3.0899 -3.46284 -5.5715 
56 1 -4.62182 -2.64137 -4.54772 
821 1 -2.54744 -1.65159 -5.94391 
2706 1 -2.17082 -2.35051 -5.38565 
1446 1 -2.88603 -2.35817 -4.56357 
1643 1 -1.35335 -2.60848 -5.10651 
484 1 -0.462628 -2.94706 -5.29794 
644 1 0.959251 -3.31005 -5.73729 
1484 1 -0.257755 -2.13018 -5.47794 
3430 2 0.392104 -2.97403 -4.60765 
3354 2 0.197869 -2.11869 -4.4104 
1462 1 0.706448 -2.35055 -5.57283 
1953 1 1.50646 -2.72315 -5.12643 
2830 2 2.91122 -2.99949 -5.44843 
3356 2 2.48089 -2.26972 -5.14209 
1385 1 3.3542 -1.8036 -6.23578 
1313 1 3.57188 -1.91315 -5.36683 
1830 1 5.71421 -3.11253 -5.31784 
2130 1 5.55088 -2.07098 -5.19453 
1493 1 5.42022 -3.44362 -4.56153 
1034 1 4.31501 -2.22577 -5.04876 
452 1 6.67941 -2.90361 -5.57688 
1301 1 -6.97692 -1.44951 -4.56673 
2054 1 7.21814 -1.35861 -5.39044 
304 1 -6.62283 -2.10252 -5.69355 
2993 2 -5.60431 -1.86209 -4.98153 
1835 1 -4.88275 -1.12571 -5.03431 
720 1 -6.37985 -1.35111 -5.74588 
3041 2 -3.76659 -1.8779 -5.35799 
2869 2 -3.76394 -1.08603 -5.42058 
1815 1 -2.76998 -0.0210223 -6.38093 
1064 1 -2.8536 -0.719599 -5.73781 
1864 1 -1.77341 -0.743382 -4.94705 
572 1 -2.73781 -1.62644 -4.8556 
2549 1 -1.93284 -1.56115 -5.15121 
1380 1 -0.691992 -0.985375 -5.21492 
1890 1 1.03963 -1.0016 -4.65818 
2105 1 0.102781 -0.653114 -5.28244 
2605 1 1.04467 -1.21545 -5.6162 
971 1 1.3729 -0.47126 -3.81536 
3557 2 2.3887 -1.51139 -4.91196 
859 1 3.22015 -0.211066 -5.51024 
3449 2 2.16097 -0.771768 -5.03449 
2084 1 3.39614 -1.36903 -4.26597 
840 1 3.60334 -0.468273 -4.5013 
2995 2 4.45145 -0.93265 -5.76492 
110 1 3.35661 -1.11872 -5.30951 
153 1 5.19091 -1.29985 -4.85255 
2972 2 4.73977 -1.62426 -5.87634 
1466 1 5.2952 -0.48253 -5.07186 
377 1 6.0383 -1.57311 -5.66357 
1145 1 6.74706 -2.08151 -5.64827 
3267 2 -5.94265 -1.21892 -4.70277 
1402 1 -6.88228 -0.529722 -5.44858 
2423 1 -6.64748 0.372727 -5.28889 
1841 1 -5.11515 -0.257973 -5.61758 
1369 1 -5.52322 -1.04257 -5.93895 
1551 1 -5.71079 0.336935 -5.49954 
443 1 -4.64102 0.272733 -6.04778 
2844 2 -3.78857 -0.235839 -5.06343 
3543 2 -4.08744 0.551079 -5.16766 
1790 1 -2.70724 0.175549 -5.49962 
1268 1 -2.427 1.14938 -4.4842 
2601 1 -2.14033 0.100109 -4.66457 
400 1 -0.605147 1.06997 -5.42697 
871 1 -0.993548 -0.250022 -5.03989 
2395 1 -1.25852 0.568255 -4.74233 
75 1 -0.380537 0.311458 -5.22083 
1432 1 0.78891 -0.337881 -5.14835 
1531 1 0.93632 0.211862 -4.42432 
1777 1 0.429667 0.451892 -5.12136 
2231 1 3.07128 0.753775 -5.74927 
3383 2 1.99123 -0.0128853 -4.79717 
1185 1 3.04264 0.594492 -4.89671 
3317 2 4.40934 -0.159642 -5.73685 
2722 1 2.9243 -0.105726 -4.3721 
1568 1 5.29349 0.409455 -5.35571 
34 1 6.45012 -1.13617 -5.15658 
2151 1 7.06054 1.03502 -5.02315 
2297 1 6.15392 -0.454475 -5.13924 
263 1 -7.02441 1.39031 -5.68404 
2523 1 -6.02775 1.26225 -5.28899 
2677 1 -4.9337 1.3991 -6.12895 
2560 1 -5.31194 1.79988 -5.46304 
2180 1 -5.13805 0.96317 -5.54718 
1833 1 -3.16806 2.67717 -5.90068 
3256 2 -4.17671 1.41369 -4.94701 
1238 1 -3.36438 1.96107 -5.57553 
2030 1 -2.6291 1.99386 -4.58808 
2846 2 -1.96009 1.51456 -5.66609 
2939 2 -1.82109 0.84394 -5.7702 
28 1 -1.29862 2.46168 -4.8336 
1880 1 -1.6452 1.18995 -4.29402 
1257 1 -0.577885 2.11842 -5.1298 
549 1 -0.0924786 1.44388 -4.85218 
76 1 1.71238 1.77496 -5.75095 
1374 1 1.36447 0.570657 -5.468 
175 1 2.14536 0.953203 -5.73016 
221 1 0.939741 1.60741 -5.33276 
2276 1 3.43406 1.62279 -6.11592 
2707 1 2.89297 1.72995 -4.5198 
3443 2 1.93915 0.776797 -4.67432 
2848 2 4.1477 0.304181 -5.29355 
3364 2 4.05685 1.14653 -5.30979 
941 1 5.19979 1.38676 -5.46735 
779 1 5.22361 2.27833 -4.78465 
2584 1 5.78508 1.18981 -4.84228 
698 1 6.18803 2.10167 -4.56391 
3038 2 6.27072 1.18369 -5.88313 
1151 1 6.029 0.417156 -4.92446 
92 1 -6.89055 2.52696 -5.50049 
896 1 -6.54601 3.21277 -5.1779 
2690 1 -5.5693 2.70431 -5.55049 
1584 1 -6.44219 1.99095 -5.15384 
3144 2 -4.5872 2.16387 -4.77024 
2861 2 -4.71143 2.93375 -4.64671 
488 1 -3.35579 3.71913 -5.76646 
1224 1 -4.22126 3.55245 -5.68446 
1986 1 -3.31325 2.39419 -4.86124 
3117 2 -2.14954 2.22231 -5.58288 
2945 2 -2.38173 2.92183 -5.40436 
2708 1 -0.934991 1.73302 -5.94305 
2647 1 -0.281697 2.99823 -4.84092 
1132 1 0.0653268 3.5593 -4.3231 
2442 1 0.220064 2.21702 -5.01428 
1375 1 0.983283 2.55639 -5.22113 
867 1 0.580014 3.37747 -5.13643 
1713 1 1.87005 2.64527 -5.34036 
171 1 2.57028 2.23019 -5.52484 
2271 1 2.26003 3.39258 -4.75186 
268 1 3.14801 2.38453 -6.02611 
3388 2 3.76791 1.82538 -5.04981 
3433 2 3.71181 2.56921 -5.07945 
1939 1 4.71326 2.42339 -5.52439 
81 1 4.63285 1.78432 -4.46912 
2497 1 5.3833 3.04754 -4.56602 
1335 1 6.9783 1.94255 -5.04507 
3414 2 5.85869 2.85976 -5.59364 
3060 2 6.07455 1.98937 -5.76433 
13 1 6.54709 2.86245 -4.73928 
577 1 6.94213 3.09844 -5.94712 
2209 1 -6.77373 4.38017 -4.9574 
1760 1 7.0551 3.56388 -5.27911 
789 1 -5.58205 4.53775 -5.63284 
2376 1 -5.95285 3.69036 -5.19782 
2200 1 -4.96804 4.17957 -5.79223 
2436 1 -3.46386 3.30291 -4.96821 
2495 1 -3.78555 4.20417 -4.6974 
2977 2 -2.29223 3.72649 -5.18595 
46 1 -1.02601 3.41286 -4.91827 
2208 1 -0.486767 4.07296 -4.60623 
561 1 -1.05649 2.74043 -5.5561 
2813 2 -0.176074 4.05338 -5.80405 
1521 1 0.418828 4.38516 -4.91894 
2176 1 1.38812 3.39067 -5.48383 
1639 1 1.50771 4.26116 -5.23178 
530 1 2.66474 3.20102 -5.61379 
1997 1 2.33839 4.05134 -5.44212 
3013 2 3.22463 4.11481 -4.586 
2894 2 3.52218 3.3731 -4.84415 
825 1 4.28183 4.60541 -5.69864 
2703 1 4.59228 3.34463 -5.21126 
3298 2 5.57752 3.64029 -5.53293 
2917 2 5.50158 4.40102 -5.3983 
2541 1 6.59446 4.34398 -5.62847 
1169 1 6.39274 3.76388 -4.7596 
3147 2 -6.74201 4.5602 -5.95299 
2469 1 -6.67482 5.98602 -4.36938 
612 1 -7.17846 5.29561 -4.71612 
1697 1 -5.73956 4.95936 -6.55398 
1255 1 -5.30253 5.26867 -5.56771 
1318 1 -5.64578 6.76224 -5.21143 
297 1 -5.95164 5.75973 -4.93755 
1543 1 -4.32692 5.15003 -5.32517 
2466 1 -3.64834 5.34568 -5.57946 
361 1 -4.33283 5.92718 -5.06744 
101 1 -3.79422 5.05498 -4.49442 
2865 2 -2.71729 4.59273 -5.04521 
3458 2 -2.71329 5.42958 -5.058 
1030 1 -1.73037 5.39167 -5.66543 
353 1 -1.27838 3.59793 -5.69833 
3378 2 -0.504018 4.84428 -5.58907 
3392 2 -0.544408 5.64633 -5.46755 
849 1 0.481091 5.89285 -5.52392 
1196 1 0.472322 5.3436 -4.66503 
1709 1 1.3801 5.81604 -4.76562 
23 1 1.77741 4.94896 -4.81213 
614 1 2.36419 4.90966 -5.36752 
103 1 3.0036 5.64904 -5.72835 
1249 1 2.29475 5.73986 -4.87221 
2814 2 3.42035 4.92237 -4.63193 
1422 1 4.25374 6.13776 -5.59098 
1390 1 4.46043 5.26209 -4.78939 
2028 1 4.21004 6.22069 -4.65541 
451 1 4.4717 4.64493 -4.05347 
2927 2 5.45552 5.21558 -5.21939 
3257 2 5.44217 5.97125 -4.86095 
2546 1 6.72537 4.62658 -4.87724 
462 1 6.6588 5.30378 -5.70526 
2747 2 -6.78099 6.30898 -5.48268 
3330 2 -6.64761 5.43826 -5.81934 
1490 1 -6.10142 6.59024 -4.40418 
1060 1 -5.79471 6.50613 -6.14163 
964 1 -4.96649 -7.04279 -4.66527 
803 1 -5.19738 6.09318 -5.05 
1004 1 -3.96666 7.09899 -5.28727 
1235 1 -2.58162 6.04654 -5.71916 
2626 1 -1.93965 6.32288 -4.76633 
2988 2 -2.92926 5.97774 -4.57891 
2018 1 -2.05959 7.06954 -5.5965 
180 1 -2.07259 7.12808 -4.81087 
3265 2 -2.96597 6.69888 -4.47076 
3018 2 -0.801195 6.83649 -5.17314 
3207 2 -0.916011 6.11994 -5.08405 
512 1 0.231689 6.90798 -5.4769 
2038 1 0.618475 6.33178 -4.76196 
2899 2 1.45512 6.32173 -5.79673 
2978 2 1.24404 7.02501 -5.67229 
27 1 1.89741 6.53956 -4.67548 
372 1 1.94591 6.36231 -3.84237 
1333 1 2.58378 6.24308 -6.27911 
245 1 2.60953 6.52771 -5.30775 
2256 1 3.49291 6.59139 -5.26754 
1513 1 3.98959 -7.10173 -5.16028 
2971 2 5.22687 6.82014 -4.77713 
1263 1 6.88454 6.25241 -4.38656 
2160 1 6.5453 6.5995 -5.81229 
610 1 -6.54301 7.08104 -3.49109 
2106 1 -6.4916 -5.85074 -4.1192 
3469 2 -5.89128 -5.5414 -3.40588 
1893 1 -6.9891 -6.51458 -3.58132 
3545 2 -5.51678 -6.29653 -3.46571 
1232 1 -4.32129 -6.87219 -3.81447 
3413 2 -3.37733 -6.17413 -4.2144 
2835 2 -3.37763 -6.96662 -4.36069 
278 1 -3.98957 -6.63004 -3.08361 
1252 1 -2.17933 -6.0913 -3.83224 
356 1 -1.25244 -6.85295 -3.76627 
1836 1 -1.40597 -5.99207 -3.6082 
945 1 -0.63085 -6.86456 -3.00598 
811 1 -0.401637 -6.93086 -4.06769 
3056 2 0.725617 7.13793 -3.45608 
2096 1 0.964207 -6.55537 -4.31974 
3236 2 0.358581 -6.5068 -3.35136 
1416 1 1.77532 -6.1838 -4.54116 
1382 1 2.09405 -6.95673 -4.88643 
1300 1 1.74816 -6.52684 -2.95085 
3303 2 2.65059 -6.46938 -3.81648 
3497 2 2.84238 7.14895 -4.11631 
1160 1 3.85162 -6.32269 -3.4469 
2315 1 3.72092 -6.59661 -4.36143 
189 1 4.4695 -6.94524 -3.6385 
2926 2 5.17946 -6.71518 -4.48616 
3290 2 4.80474 -6.04168 -4.58917 
2075 1 5.496 -5.97245 -3.59384 
492 1 4.69009 -6.11543 -3.41745 
2288 1 6.81056 -6.93178 -4.11437 
2162 1 6.8839 -5.91003 -3.8515 
1013 1 -7.05264 -5.06431 -3.64236 
2332 1 -5.05119 -5.11999 -4.4676 
1609 1 -4.56207 -5.93306 -4.02756 
1730 1 -4.85094 -5.00505 -3.55815 
138 1 -5.91964 -5.22523 -4.51934 
2388 1 -4.63688 -4.37995 -4.51218 
3562 2 -3.60617 -5.49873 -4.02404 
3536 2 -3.79567 -4.75482 -3.82845 
1691 1 -2.62054 -5.65484 -5.03004 
1344 1 -2.30117 -6.35896 -4.6427 
104 1 -2.2725 -5.35317 -4.37149 
3322 2 -1.24491 -5.36842 -4.57084 
1728 1 -2.0548 -5.18415 -3.45121 
842 1 -0.131183 -5.12904 -4.64308 
1945 1 -0.604918 -5.94137 -3.86878 
1810 1 -0.376747 -4.98968 -3.77887 
2102 1 0.411479 -4.74146 -3.94714 
1799 1 0.644939 -5.60288 -4.01541 
2067 1 1.2119 -4.84443 -3.88824 
1992 1 1.42203 -6.04459 -3.74295 
2178 1 1.89664 -4.45452 -4.59158 
2306 1 2.60576 -4.00011 -4.34593 
2918 2 2.35639 -5.70712 -3.64887 
3379 2 2.40077 -5.00963 -3.49137 
281 1 3.49835 -5.58656 -4.10962 
2712 1 3.03071 -4.8281 -4.58082 
2458 1 4.49337 -5.33125 -3.11705 
1000 1 5.71207 -5.04438 -4.93033 
3340 2 4.56097 -4.6319 -3.97276 
2825 2 4.45162 -5.37575 -4.20049 
317 1 6.07187 -5.8523 -4.39377 
1994 1 6.35607 -5.17298 -3.68931 
844 1 -6.53125 -3.80691 -4.10954 
587 1 -5.8529 -3.53554 -3.99357 
656 1 -6.70465 -3.34166 -4.78788 
2350 1 -5.08677 -4.03725 -3.86661 
2318 1 -4.85746 -4.17839 -3.06374 
1733 1 -4.57483 -3.53985 -4.1703 
3376 2 -3.76836 -4.04797 -3.6219 
904 1 -2.69166 -3.81408 -3.42116 
1470 1 -2.64196 -4.59412 -4.04706 
3480 2 -1.2886 -4.60086 -4.37584 
3285 2 -1.63252 -4.00966 -4.12316 
728 1 -1.56103 -4.36414 -3.17208 
1028 1 -0.992296 -3.94458 -3.19062 
139 1 -0.225159 -4.11236 -4.56003 
1468 1 -0.368337 -4.18286 -3.71799 
635 1 0.518139 -3.86346 -3.63998 
250 1 1.67743 -3.10506 -4.05361 
1863 1 1.59988 -4.04994 -3.91701 
1073 1 2.5028 -3.11066 -4.19563 
3230 2 2.43259 -4.19656 -3.11489 
891 1 3.27291 -3.45876 -4.27396 
1075 1 3.49211 -3.92721 -3.40438 
1653 1 3.42216 -4.59495 -3.9012 
3244 2 4.48389 -3.73187 -3.86289 
126 1 5.61085 -5.25773 -3.89242 
2365 1 5.68641 -3.50447 -3.491 
3173 2 6.63637 -4.11753 -4.59823 
2109 1 7.15757 -4.17821 -3.55406 
2695 1 6.19943 -4.37982 -3.36261 
1707 1 -6.98525 -3.15037 -3.7305 
1325 1 -6.65992 -2.56255 -4.18321 
517 1 -5.06228 -2.06303 -3.97437 
1144 1 -5.93928 -2.5743 -3.75979 
1481 1 -5.18357 -3.30589 -3.12191 
525 1 -5.10423 -2.95085 -3.94912 
3083 2 -3.9424 -3.30389 -3.39578 
3229 2 -4.17847 -2.61972 -3.19853 
1581 1 -3.78698 -2.0368 -4.20712 
1979 1 -3.03312 -3.15608 -4.30325 
195 1 -2.85481 -2.86403 -3.52718 
1611 1 -0.80269 -2.40751 -4.26403 
2916 2 -1.74165 -3.20816 -4.16425 
954 1 -0.655673 -3.31157 -4.48556 
851 1 -0.702766 -3.24198 -3.51646 
1431 1 -0.566455 -2.39411 -3.38689 
1946 1 1.65205 -2.2895 -4.12675 
607 1 0.963901 -2.86049 -3.67105 
202 1 0.990786 -1.9846 -3.69778 
879 1 3.35198 -2.30641 -4.61648 
535 1 2.6313 -2.24528 -3.98355 
2857 2 4.48294 -2.97421 -3.83232 
3353 2 3.98304 -2.35054 -3.69949 
190 1 5.53912 -2.76127 -4.09776 
2858 2 6.49485 -3.31084 -4.51497 
3116 2 6.49259 -2.51648 -4.5084 
2225 1 7.07066 -2.62778 -3.2206 
1882 1 7.06145 -0.504057 -4.67524 
863 1 -5.94963 -1.76045 -3.55245 
90 1 -7.06007 -1.9064 -3.71527 
960 1 -6.76557 -0.962574 -3.7901 
1627 1 -5.1759 -1.09977 -3.65298 
2296 1 -6.11535 -0.846877 -3.4407 
1572 1 -4.43136 -1.48487 -4.42967 
2674 1 -3.44729 -1.16722 -4.14772 
808 1 -4.23721 -0.731311 -4.07509 
2309 1 -3.09565 -2.00832 -3.67332 
2638 1 -3.56047 -0.396999 -3.66005 
3198 2 -1.88662 -2.46567 -3.82476 
2766 2 -2.0556 -1.62914 -3.85652 
2426 1 -1.14951 -1.91186 -4.99394 
2237 1 -1.0663 -1.1289 -4.41261 
2540 1 -1.07007 -0.606227 -3.29696 
3585 2 0.0977591 -1.43235 -4.31549 
128 1 -0.771761 -1.49743 -3.60956 
84 1 1.2295 -1.90135 -4.76247 
247 1 0.874999 -1.13401 -3.47704 
236 1 2.94741 -1.95655 -2.95026 
169 1 1.78793 -1.28066 -4.06994 
1337 1 2.68327 -1.35791 -3.70319 
2211 1 4.21272 -1.45656 -4.6232 
3134 2 4.05888 -1.6364 -3.53039 
2914 2 3.94726 -0.751992 -3.4443 
1299 1 4.94952 -2.34538 -4.51558 
1703 1 5.20569 -1.68064 -4.1115 
1031 1 6.76891 -1.42815 -3.2046 
2856 2 6.33441 -1.83021 -4.35958 
1575 1 -7.00029 0.00273088 -3.69892 
3186 2 -6.1319 -0.481135 -4.6614 
1428 1 -5.102 -0.544787 -4.37469 
2302 1 -5.29622 0.251791 -3.73123 
1248 1 -3.04244 0.457736 -4.56076 
111 1 -4.37055 0.16271 -4.02678 
827 1 -3.64843 0.331928 -3.23196 
2748 2 -2.27864 -0.835659 -3.80587 
2718 1 -2.77883 -0.758575 -4.81131 
2789 2 -2.53264 -0.0133916 -3.61322 
2241 1 -1.33112 -0.218709 -4.17972 
1969 1 -0.931237 0.427946 -3.15352 
3500 2 0.062458 -0.60657 -4.19662 
3555 2 -0.218433 0.143241 -4.04141 
2489 1 0.900308 0.859893 -3.82218 
506 1 1.68123 0.402683 -3.61462 
1700 1 1.63294 1.2471 -3.37564 
692 1 0.663589 0.0731486 -3.37796 
1119 1 2.76392 0.00454846 -2.85585 
922 1 2.363 -0.426181 -3.73017 
3483 2 3.7397 -0.0022252 -3.31978 
296 1 4.18561 0.412654 -4.27686 
1548 1 4.49384 -0.649329 -4.62955 
2352 1 4.92772 -0.943803 -3.9373 
2223 1 5.01603 0.163088 -4.54868 
1716 1 5.5891 -0.0430605 -2.8467 
2351 1 6.81059 -0.435427 -3.46427 
2902 2 6.13528 -1.04735 -4.04162 
1138 1 6.80698 0.295648 -4.89187 
2819 2 5.90166 -0.347148 -4.12942 
3263 2 -6.2857 0.291202 -4.41199 
3260 2 -6.47248 1.0976 -4.2457 
1343 1 -5.36951 0.999354 -4.59535 
385 1 -5.16836 0.181253 -4.711 
1913 1 -5.66653 1.00205 -3.62467 
882 1 -3.64118 0.740998 -3.94932 
1316 1 -4.48269 0.888293 -3.89303 
1483 1 -4.18405 2.08903 -3.83536 
3490 2 -2.57 0.805343 -3.4051 
3588 2 -2.66435 1.63894 -3.37847 
1971 1 -1.80675 1.94274 -4.45618 
2108 1 -1.56894 0.547229 -3.78079 
3196 2 -0.618379 1.6983 -4.01491 
2950 2 -0.291255 0.89773 -4.07665 
2013 1 0.446733 1.89483 -4.27619 
1606 1 0.314076 1.35469 -3.26283 
2406 1 0.817493 1.13569 -4.69561 
2328 1 0.961237 1.87536 -3.60342 
3241 2 1.77131 1.64767 -4.55323 
583 1 2.6505 0.650219 -3.80456 
1501 1 2.64787 1.6255 -3.77658 
613 1 3.42771 0.929816 -4.16852 
1364 1 4.19353 1.13237 -4.03049 
763 1 4.79684 0.735907 -3.36742 
3209 2 5.84024 0.401764 -3.8308 
2327 1 4.96322 1.10477 -4.5537 
817 1 6.92318 0.615172 -4.13453 
523 1 6.57815 1.35673 -4.44821 
654 1 -6.71292 0.757517 -3.18381 
3033 2 -6.77618 1.84407 -4.05612 
2751 2 -6.85924 2.64191 -4.19879 
2278 1 -5.06111 1.74036 -3.68072 
1793 1 -5.58558 1.84939 -4.46529 
1607 1 -5.43825 2.52799 -4.01628 
969 1 -3.35562 1.49921 -4.30512 
978 1 -4.75746 2.76796 -3.56466 
683 1 -3.65223 2.64851 -4.0937 
2529 1 -2.54396 2.72703 -4.15016 
154 1 -2.35318 3.66155 -4.12075 
1110 1 -1.91496 2.19079 -2.85435 
2592 1 -1.65481 3.19709 -4.40677 
1775 1 -1.80977 2.30719 -3.6569 
1002 1 -1.82133 3.30967 -3.29805 
2860 2 -0.670198 2.45311 -3.8604 
30 1 0.341792 2.73262 -4.331 
2 1 -0.15552 3.01792 -2.66666 