ITEM: TIMESTEP
44200
ITEM: NUMBER OF ATOMS
3594
ITEM: BOX BOUNDS pp pp pp
-7.2010842550397305e+00 7.2010842550397305e+00
-7.2010842550397305e+00 7.2010842550397305e+00
-7.2010842550397305e+00 7.2010842550397305e+00
ITEM: ATOMS id type x y z 
335 1 -5.8197 -5.97554 -6.64318 
1273 1 -6.54369 -6.2653 -6.40175 
3520 2 -5.00911 -6.85837 -6.06854 
392 1 -3.71514 -6.38525 -6.5443 
2002 1 -3.87927 -7.11757 -6.22578 
1906 1 -4.55083 -6.57795 -6.93529 
2308 1 -3.77415 -7.01799 -7.07067 
2944 2 -2.67537 -6.78859 -6.55948 
2083 1 -1.50504 -6.78256 -6.56874 
1643 1 -0.926274 -6.14092 -6.06632 
1385 1 0.484503 -6.99397 -6.47822 
1093 1 -0.693916 -6.97467 -6.01911 
2024 1 1.46896 6.99923 -6.9608 
2246 1 1.09961 -6.38844 -6.54391 
774 1 1.92493 -6.82552 -6.51773 
3442 2 3.24117 -5.80526 -6.20293 
2537 1 2.44149 -6.09431 -6.86127 
1882 1 2.42396 7.03904 -6.0431 
3587 2 3.2872 -6.59066 -6.28364 
932 1 4.28167 -5.90012 -6.73739 
2678 1 4.45024 -6.67462 -6.69375 
3208 2 5.39725 -6.4204 -6.90964 
2787 2 5.79063 -7.09972 -6.9894 
589 1 4.45021 -6.03902 -5.8402 
13 1 6.31979 -6.95882 -6.16587 
1345 1 6.91287 -6.26889 -6.45371 
639 1 6.25509 -6.18041 -5.93632 
572 1 -5.99899 -5.10586 -6.60379 
2015 1 -7.02048 -5.55383 -6.29848 
2727 1 -6.3785 -5.14458 -5.84175 
3029 2 -6.91334 -4.93236 7.14898 
1020 1 -5.07214 -5.28656 -6.86777 
937 1 -5.40235 -4.34294 -6.60079 
2702 1 -4.27086 -5.64369 -6.71197 
1181 1 -3.68116 -4.84878 -7.03725 
2516 1 -4.00461 -5.19801 -6.02138 
1477 1 -4.4324 -4.66642 -6.59879 
3574 2 -2.7759 -6.00236 -6.50036 
2981 2 -2.95534 -5.34413 -6.3941 
890 1 -2.07997 -4.70578 -6.55518 
3484 2 -0.723837 -5.23864 -7.11769 
2453 1 -1.47734 -5.27887 -5.88443 
2808 2 -1.02485 -4.5402 -6.90398 
2630 1 -1.5954 -5.71022 -6.54849 
533 1 0.141021 -6.17789 -6.34479 
1122 1 0.385194 -5.03635 -6.77172 
103 1 0.666948 -5.76694 -6.88627 
1587 1 1.30605 -5.03917 -6.50178 
1442 1 1.90166 -5.73039 -6.16044 
1836 1 2.33083 -5.27772 -6.82214 
2957 2 2.94015 -5.10403 -5.84281 
1734 1 2.42453 -4.46448 -6.77373 
2431 1 3.85483 -4.91659 -6.69304 
302 1 3.6669 -5.66976 7.15599 
2256 1 3.17688 -4.6467 -7.07834 
2539 1 4.1778 -5.09596 -5.87776 
2812 2 5.5267 -5.75935 -6.63159 
3212 2 5.10301 -5.13064 -6.53611 
1697 1 6.47759 -5.3575 -6.7409 
153 1 6.82682 -4.93631 -6.1601 
2137 1 -6.23042 -4.38597 -6.24482 
2975 2 -7.11346 -4.28396 -6.97683 
148 1 -6.52293 -3.6443 -6.05416 
1445 1 -4.72613 -3.59387 -6.39436 
1654 1 -5.84331 -3.70498 -6.49933 
139 1 -3.98882 -3.85155 -6.87686 
3041 2 -3.36669 -3.6004 -5.97758 
1835 1 -4.30521 -2.69752 -6.63504 
3061 2 -3.18467 -4.42028 -6.27921 
1183 1 -2.3559 -4.32926 7.15535 
1822 1 -2.17702 -3.82482 -6.32377 
2057 1 -2.77698 -3.46639 -6.97439 
3332 2 -1.06373 -3.67185 -6.69343 
632 1 0.207909 -4.16225 -7.11197 
607 1 0.0780599 -3.36995 -6.6366 
1050 1 -0.243006 -4.29333 -6.1532 
2623 1 1.76429 -4.45379 -6.14264 
1313 1 0.850279 -4.15028 -6.28892 
2520 1 1.29909 -3.43928 -5.9833 
2933 2 2.93274 -4.35309 -5.85358 
26 1 3.15265 -3.85248 -6.9783 
2628 1 2.00625 -3.56388 -6.46394 
779 1 4.02956 -3.99263 -6.87782 
847 1 3.85773 -3.4232 -6.11393 
1527 1 4.0472 -4.28724 -5.92287 
190 1 4.11656 -3.10262 -6.99038 
3266 2 5.00978 -4.2824 -6.41617 
2500 1 6.15873 -4.45323 -6.54255 
274 1 6.21187 -3.28382 -6.48917 
3126 2 7.15069 -3.47506 -6.78747 
90 1 -6.1307 -2.75572 -6.55335 
519 1 -6.49438 -1.89093 -6.61863 
802 1 -6.54794 -2.55922 -6.0302 
2360 1 -5.78238 -1.95386 -6.06178 
1640 1 -5.40552 -2.97986 -6.28301 
18 1 -4.89291 -2.30976 -6.13672 
2526 1 -4.12694 -2.09784 7.04083 
911 1 -3.33032 -2.26864 -6.73987 
743 1 -2.57614 -2.75269 -6.5159 
3234 2 -1.31189 -2.81407 -6.66309 
3105 2 -1.29383 -2.16756 -6.27991 
250 1 -0.225877 -2.58155 -6.91642 
541 1 0.709604 -2.92547 -6.08976 
1489 1 0.154724 -2.25759 -6.09136 
3347 2 1.03813 -2.89574 7.15153 
1644 1 1.70203 -2.60906 -6.36445 
2709 1 3.10183 -3.03111 -6.68225 
2050 1 2.60102 -1.86264 -6.67247 
1897 1 2.39577 -2.64598 -6.72874 
1981 1 3.88124 -2.21704 -6.86376 
2767 2 5.20037 -3.5007 -6.16624 
3550 2 4.90932 -2.70012 -6.21823 
2415 1 6.0236 -2.21333 6.79999 
1648 1 4.89145 -2.31178 -7.1998 
1834 1 5.84768 -2.2495 -6.71794 
3087 2 7.03314 -2.70103 -6.82735 
2126 1 6.18966 -2.92106 -5.70153 
2617 1 -6.74388 -0.853605 -6.72188 
2037 1 -6.63161 -0.296797 -6.03153 
41 1 -6.13674 -1.16874 -6.02903 
1781 1 -5.09153 -1.26211 -5.97391 
2892 2 -5.55952 -1.27332 -7.0006 
1928 1 -4.43371 -1.6443 -6.60447 
2699 1 -3.6786 -1.46635 -6.65874 
571 1 -4.42429 -0.862303 -6.83645 
2326 1 -3.66638 -0.390138 -6.56441 
323 1 -2.29945 -1.76075 -7.04023 
667 1 -2.90395 -1.00865 -6.20253 
2013 1 -2.64239 -0.665346 -6.93834 
3200 2 -1.62532 -1.43635 -6.1383 
2796 2 -1.7537 -0.686456 -6.03311 
1976 1 -0.918365 -1.03987 -6.79944 
628 1 -0.431861 -1.68363 -6.54331 
3151 2 0.674638 -1.49925 -6.77993 
460 1 -0.557608 -0.716585 -6.14522 
2804 2 0.815636 -2.12335 -7.07842 
1859 1 1.70355 -1.65446 -6.45585 
309 1 3.14607 -1.67945 -6.13119 
1418 1 2.51247 -1.1527 -6.32618 
303 1 3.61085 -1.27219 -6.69853 
2972 2 4.69041 -1.98878 -6.12608 
675 1 4.27945 -1.58878 6.84389 
2072 1 4.971 -1.24963 -6.87585 
42 1 5.61672 -1.40643 -6.31707 
2510 1 5.58051 -1.6614 -7.16558 
2840 2 6.86626 -1.87215 -6.65529 
2797 2 6.6502 -1.01821 -6.51757 
668 1 -6.94431 -0.00373441 -6.71195 
3360 2 -5.74419 -0.54358 -7.06716 
3097 2 -5.64523 0.128009 -6.86688 
408 1 -5.27038 0.613496 -5.92031 
1001 1 -5.01889 -0.431532 -6.19344 
415 1 -4.53488 0.0534252 -6.56517 
1772 1 -3.6141 0.457102 -6.11729 
2108 1 -2.746 0.913146 -6.59992 
2081 1 -3.03464 -0.096974 -6.2362 
2694 1 -2.39525 0.0826955 -7.05419 
343 1 -1.30882 -0.247984 -6.90224 
502 1 -0.748912 0.107837 -6.27389 
2390 1 -1.86328 -0.992829 7.15962 
3088 2 0.502929 -0.758564 -6.56929 
3311 2 0.512994 0.00531505 -6.53766 
2712 1 1.48736 0.163126 -5.92161 
1695 1 1.78431 -0.586264 -6.35763 
1843 1 1.57708 -0.144953 -7.00684 
40 1 2.39457 0.0386115 -5.93011 
296 1 3.11286 -0.608338 -6.30301 
1876 1 3.32453 0.306764 -6.10988 
851 1 3.74236 -0.227291 -6.8406 
1824 1 4.22605 -0.809784 -7.11001 
366 1 5.68845 -0.613675 -7.0007 
453 1 4.85725 -0.338612 -6.74341 
1362 1 5.06919 0.299279 -5.78427 
970 1 5.35189 0.612053 -6.80328 
2122 1 5.34472 -0.542598 -6.02204 
3135 2 6.48966 -0.200347 -6.34478 
3038 2 6.26991 0.519116 -6.19989 
3007 2 -6.03024 1.65623 -6.48627 
305 1 -6.97267 0.728296 -6.18486 
1607 1 7.1988 1.62996 -6.25011 
3127 2 -6.08695 0.824417 -6.69226 
2318 1 -4.95989 1.49634 -6.27442 
565 1 -5.06886 2.11495 -7.07936 
433 1 -4.39123 0.845408 -6.36001 
3093 2 -3.88436 1.57785 -7.19164 
2466 1 -4.18777 1.80801 -5.97935 
28 1 -3.34342 1.36559 -6.14088 
2275 1 -2.83391 2.01454 -6.38129 
1265 1 -2.22162 1.28999 -7.04295 
2042 1 -1.01561 0.920272 -6.28847 
1255 1 -1.75274 0.56703 -6.96431 
1525 1 -0.714775 1.42149 -7.05096 
287 1 -1.46981 1.59435 -6.63697 
994 1 -1.14702 1.7011 -5.85523 
2928 2 0.142368 0.618178 -6.44242 
3078 2 0.113043 1.41711 -6.36488 
1708 1 1.47743 0.645393 -6.59124 
1057 1 0.627824 1.67742 7.05954 
2960 2 2.44319 0.55318 -7.10534 
3459 2 2.22318 1.32879 -7.05616 
2418 1 4.40852 0.455557 -6.63778 
591 1 3.31405 1.83227 -6.16417 
1218 1 3.76549 0.982881 -6.62475 
805 1 4.12165 1.71112 -6.22326 
171 1 3.24601 2.0691 -7.04223 
312 1 4.92327 1.1876 -6.2591 
199 1 5.59597 1.59533 -6.81114 
3060 2 6.21355 1.41514 -5.97446 
2061 1 6.43788 1.83673 -6.9475 
3140 2 -6.07824 2.34952 -6.28765 
3465 2 -6.24612 3.06072 -6.15647 
1691 1 -5.03789 2.57248 -6.45132 
2783 2 -3.99961 2.36466 -6.87534 
3408 2 -4.12499 3.08508 -6.70114 
2077 1 -4.33849 2.72359 -5.61423 
507 1 -3.38655 3.30499 -5.77474 
1053 1 -1.98967 2.35799 -6.42022 
686 1 -3.5172 2.2877 -5.77684 
341 1 -2.95318 2.94418 -6.63482 
1517 1 -1.35168 2.74035 -6.14437 
757 1 -0.937289 2.3576 -6.86917 
673 1 -0.967901 3.49955 -6.49739 
1933 1 -0.183503 2.16023 7.05397 
3444 2 -0.103363 2.15046 -6.05602 
920 1 0.00598095 2.9144 -6.87273 
1080 1 1.11218 1.45479 -6.69947 
2304 1 0.925143 2.30881 -6.26177 
105 1 0.886427 3.31268 -6.90339 
1932 1 0.742038 2.54814 -7.1363 
3417 2 1.96736 2.75922 -6.47007 
3393 2 2.10568 1.93588 -6.73106 
2068 1 3.09098 3.06108 -7.00043 
1068 1 4.20092 2.59326 -6.06371 
3373 2 4.4022 2.51157 -7.17118 
2765 2 4.30783 3.30355 -7.15694 
478 1 5.05154 2.20482 -6.3868 
1414 1 5.07203 3.18827 -6.40169 
2597 1 5.72066 2.6637 -6.85288 
2707 1 6.6211 2.74315 -6.70636 
2736 2 -6.39913 3.80884 -5.9002 
829 1 -6.28128 4.84222 -7.14625 
2701 1 -6.65908 4.07399 -7.13401 
536 1 -6.09191 3.4403 -7.17819 
2576 1 -5.08001 3.15506 -5.782 
2045 1 -5.58945 4.28318 -6.92396 
35 1 -5.31542 3.43783 -6.71283 
59 1 -5.3529 4.05817 -5.9658 
3411 2 -4.26947 3.81084 -6.42547 
3471 2 -4.2148 4.57966 -6.64263 
1370 1 -3.04291 3.90158 -6.26501 
1004 1 -3.13815 4.1348 -7.11525 
1344 1 -2.23183 4.19592 -5.97006 
1098 1 -2.29987 3.27497 -6.32845 
175 1 -1.55458 3.75562 -5.94439 
2285 1 -0.600546 4.15677 -7.0542 
1773 1 0.19085 3.89891 -6.66529 
3466 2 1.72048 4.42537 -6.36307 
324 1 0.717928 3.35722 -6.15807 
3478 2 1.79188 3.61457 -6.33263 
2212 1 2.81219 4.52203 -6.42737 
693 1 2.80571 3.54085 -5.68776 
703 1 3.17174 3.76231 -6.44801 
23 1 4.28284 3.72232 -5.96809 
1113 1 3.76614 4.414 -6.02861 
3551 2 4.1971 4.1266 -7.14794 
2142 1 5.47006 4.28692 -6.79299 
2530 1 5.01336 4.009 -6.24677 
339 1 5.52638 3.56095 -7.19896 
2327 1 6.24436 3.56213 -6.47552 
2685 1 -7.16662 3.39968 -6.84803 
862 1 7.00502 4.52644 -6.70826 
806 1 6.85402 4.10287 -6.01971 
2003 1 -6.545 5.73549 -7.12155 
1845 1 -5.41712 4.89485 -6.28312 
2594 1 -5.74261 5.67494 -6.94365 
942 1 -5.49852 6.04622 -6.17597 
3463 2 -4.37819 5.27402 -6.50539 
2334 1 -3.17661 4.8963 -6.80757 
2446 1 -3.4257 5.75498 -5.83284 
601 1 -3.09282 4.73335 -5.93715 
2832 2 -2.0887 5.28012 -7.04886 
2401 1 -1.1973 4.52802 -6.48096 
225 1 -1.70611 4.96822 -5.90059 
2524 1 -0.884988 5.3859 -6.71488 
1767 1 -0.112199 4.92324 -6.70412 
1521 1 0.600508 5.72836 -6.44339 
2675 1 0.842865 4.95826 -6.94126 
1924 1 0.606944 4.24709 -5.9572 
3138 2 1.78628 5.20523 -6.16804 
849 1 2.47372 5.50348 -7.12336 
1878 1 3.09058 5.25609 -6.15707 
3223 2 4.06914 4.93975 -7.05018 
3215 2 3.85796 5.77138 -6.78521 
221 1 4.52149 5.75332 -5.95763 
2711 1 5.03881 4.97391 -6.46804 
1965 1 5.18164 5.89578 -6.60911 
2568 1 5.00163 5.09896 6.92998 
213 1 6.72817 5.58185 -6.5351 
1616 1 6.22954 4.51891 -6.52538 
1341 1 5.93661 5.31383 -6.21827 
1727 1 -6.68457 6.51167 -6.77665 
2706 1 -6.33298 -7.09732 -6.51985 
1399 1 -7.11928 -7.04923 -6.39666 
1872 1 -5.66781 6.71159 -6.85069 
3477 2 -4.77547 6.75269 -6.14146 
2342 1 -3.36815 5.80849 -6.74835 
3150 2 -4.44306 5.99135 -6.25059 
2248 1 -3.70187 6.58002 -6.6983 
3454 2 -2.30459 6.11772 -7.00546 
3268 2 -2.56792 6.83816 -6.66507 
1747 1 -1.50516 5.82929 -6.03703 
1346 1 -1.60589 7.05007 -5.83813 
1893 1 -1.62913 6.91096 -7.06469 
1567 1 -1.03546 6.64311 -6.37914 
1356 1 -0.172801 5.79916 -6.27204 
1663 1 -0.173743 6.71002 -6.09875 
2831 2 1.73927 5.96114 -6.09767 
2492 1 2.01464 6.30038 -7.14925 
215 1 0.692975 6.57607 -6.74813 
748 1 2.5941 6.82611 -6.99379 
696 1 2.72866 6.02783 -6.40055 
2790 2 3.80752 6.51458 -6.48468 
3569 2 3.47524 7.14672 -6.4529 
2086 1 4.77604 6.6691 -6.17245 
1970 1 4.83935 6.90228 -6.92046 
3539 2 5.98358 6.50583 -7.11928 
1871 1 5.65683 6.44893 -6.02003 
760 1 6.86566 6.42971 -6.33415 
1410 1 7.03972 6.63018 7.12366 
1263 1 -6.01557 -6.60609 -5.67775 
2747 2 -6.98717 -6.98211 -5.32327 
655 1 -6.06624 -6.39439 -4.75269 
698 1 -5.19454 -6.34756 -4.75249 
833 1 -3.18343 -6.85131 -5.44407 
2321 1 -4.19666 -6.41434 -4.96446 
959 1 -3.85081 -6.09211 -5.77461 
1979 1 -2.2557 -6.24621 -4.63789 
1308 1 -2.4025 -7.11115 -5.22513 
1984 1 -2.46212 -5.98863 -5.45784 
1506 1 -1.76929 -6.46991 -5.83387 
3594 2 -1.11723 -7.07392 -5.00777 
3322 2 -1.15173 -6.27265 -4.90991 
1107 1 -0.0228264 -6.46761 -5.55691 
2978 2 1.13428 -6.91353 -5.51184 
3128 2 1.03818 -6.09522 -5.45802 
1799 1 1.95862 -6.24699 -4.72824 
1425 1 2.24059 -6.30098 -5.76341 
811 1 2.56852 -6.95543 -5.37573 
1896 1 3.94585 -5.61253 -5.24184 
924 1 3.95311 -6.48741 -5.1442 
248 1 3.09099 -6.00316 -4.98283 
3290 2 5.03927 -6.65978 -4.64167 
452 1 5.44322 -6.4329 -5.65133 
3487 2 7.19579 -6.19664 -5.28788 
916 1 6.09184 -6.32004 -4.11647 
1985 1 6.21593 -6.76217 -4.9323 
98 1 5.86745 -5.75359 -5.01735 
1291 1 -6.14785 -5.81461 -5.45608 
695 1 -6.33538 -4.8585 -5.04019 
316 1 -6.55866 -5.51161 -4.45228 
3416 2 -4.97568 -6.18877 -5.83122 
3325 2 -5.04052 -5.43912 -5.75729 
2176 1 -4.37 -5.49149 -4.95918 
977 1 -3.74444 -4.66889 -5.20183 
897 1 -2.32572 -5.08597 -5.51438 
1406 1 -3.28233 -5.52068 -5.25017 
2439 1 -2.13873 -4.26556 -5.71419 
2626 1 -1.15989 -4.51456 -5.88811 
3480 2 -1.39409 -5.53367 -4.83163 
1931 1 -0.569011 -4.91517 -5.26247 
1585 1 -0.158245 -5.7888 -5.19182 
245 1 -0.302046 -5.42178 -6.02574 
2826 2 0.778916 -5.35179 -5.54311 
3068 2 0.779715 -4.68276 -5.15798 
1160 1 2.3399 -5.43743 -4.93029 
1234 1 1.83679 -5.00142 -5.50153 
1416 1 2.8775 -4.93109 -4.68272 
1837 1 2.28919 -4.29075 -4.77569 
1415 1 3.70019 -4.78981 -5.01573 
1945 1 3.70804 -3.97589 -5.15968 
893 1 5.15138 -5.46646 -5.42889 
346 1 5.60981 -4.57572 -5.42508 
2828 2 6.96417 -5.40864 -5.15241 
1322 1 5.98912 -5.27254 -5.72573 
3010 2 6.80586 -4.60639 -4.88765 
2721 1 -6.50204 -4.01484 -5.12668 
2912 2 -5.30125 -4.53171 -5.59167 
2737 2 -5.48108 -3.85669 -5.37933 
88 1 -4.22768 -4.28063 -5.72864 
1361 1 -4.49765 -4.16481 -4.87122 
523 1 -4.13801 -3.3181 -4.90835 
913 1 -2.49824 -3.63811 -5.19247 
386 1 -2.86095 -4.57126 -5.2187 
786 1 -1.41927 -3.56338 -5.67318 
922 1 -1.47649 -2.8599 -5.28403 
842 1 -0.783775 -4.01171 -5.32011 
2631 1 -0.43496 -3.37971 -5.80016 
2058 1 -0.815124 -3.30397 -4.7805 
2768 2 0.423344 -4.06002 -5.39337 
3227 2 0.343973 -3.33701 -5.08506 
1538 1 1.67526 -4.18616 -5.43993 
840 1 1.74596 -3.50004 -4.8785 
3249 2 2.81615 -3.72964 -5.79474 
1611 1 2.41573 -3.43302 -4.51505 
1841 1 4.52703 -3.79672 -5.30654 
1575 1 3.6364 -3.12234 -4.907 
1372 1 4.77669 -4.64059 -5.28082 
1595 1 5.31395 -4.19621 -4.72423 
2306 1 6.33222 -4.00554 -5.89309 
1597 1 -7.12796 -4.33966 -5.75913 
1444 1 -6.89765 -3.19776 -5.21275 
2974 2 -6.07423 -2.10714 -5.07634 
2661 1 -4.58105 -3.18104 -5.64734 
2890 2 -5.72973 -2.99732 -5.16136 
477 1 -4.95273 -1.96232 -5.41247 
2869 2 -3.4296 -2.84876 -5.87785 
2320 1 -4.62108 -2.59771 -4.96827 
1316 1 -4.24842 -1.64119 -4.40845 
2549 1 -2.24453 -3.16568 -5.91706 
484 1 -2.99473 -3.0857 -4.82903 
1629 1 -2.76092 -1.86948 -6.16356 
1087 1 -2.87087 -2.24594 -4.86095 
858 1 -1.05797 -2.19635 -4.81223 
527 1 -0.610432 -2.50092 -5.66323 
3430 2 0.116351 -2.55383 -4.8636 
984 1 1.2773 -2.80279 -5.32981 
3014 2 2.65174 -3.03642 -5.50956 
2830 2 2.33069 -2.39882 -5.48385 
850 1 4.10472 -2.90118 -5.47565 
2645 1 3.52634 -2.44928 -6.00933 
1215 1 3.24096 -2.37718 -4.81074 
2211 1 5.77032 -3.57971 -5.40719 
1830 1 4.41229 -2.19247 -5.08171 
873 1 4.93891 -3.09651 -4.95272 
1373 1 5.53511 -2.42366 -5.22904 
3173 2 6.41317 -2.98363 -4.61694 
1483 1 6.83021 -3.45068 -5.74652 
2101 1 6.19633 -2.02906 -5.87097 
1326 1 7.10126 -2.48045 -5.60977 
2858 2 6.28683 -2.17567 -4.59927 
2993 2 -6.18718 -1.28967 -4.94604 
1883 1 -6.893 -1.55124 -5.73637 
1369 1 7.04461 -0.604016 -5.54675 
2605 1 -5.18216 -1.11604 -5.25145 
2560 1 -5.80061 -0.498904 -5.87501 
2844 2 -3.76503 -2.18679 -5.49611 
3543 2 -3.90567 -1.33834 -5.58708 
1112 1 -2.64943 -1.40114 -5.18281 
2465 1 -1.86896 -1.69544 -5.05497 
2262 1 -2.10934 -2.37702 -5.4824 
2139 1 -1.0936 -1.34007 -5.20556 
2511 1 -0.314357 -1.4568 -5.66501 
3354 2 0.0907631 -1.7832 -4.60509 
2600 1 0.600228 -1.54556 -5.58859 
400 1 1.20597 -0.895352 -5.7654 
154 1 1.15653 -2.19756 -5.82684 
2298 1 0.938325 -0.924296 -4.83154 
3356 2 2.32507 -1.69471 -5.4005 
3557 2 2.11455 -1.00119 -5.21527 
1275 1 3.19912 -0.802634 -5.58502 
85 1 3.66343 -1.74787 -5.39443 
2995 2 4.4742 -1.19482 -5.96469 
304 1 5.30446 -1.43512 -5.30951 
499 1 5.06164 -1.7306 -4.48439 
2074 1 6.09536 -1.16703 -5.42778 
2311 1 6.9172 -1.54649 -5.21519 
92 1 7.15273 -1.09091 -4.52676 
3186 2 -6.48487 0.254273 -4.57712 
817 1 7.16346 0.42773 -5.46696 
1224 1 -6.18728 0.366701 -5.6665 
1953 1 -5.42908 -0.183242 -5.27558 
2436 1 -5.44874 0.801891 -4.9302 
3256 2 -4.03437 -0.545208 -5.47516 
3144 2 -4.24611 0.3906 -5.35837 
1635 1 -2.96181 -0.546787 -5.37459 
2939 2 -1.98456 0.000925419 -5.94952 
2241 1 -3.08681 0.390657 -5.4081 
1064 1 -2.1549 -0.621315 -5.0389 
174 1 -1.58875 0.13508 -4.74178 
2609 1 -0.93102 -0.403736 -5.41543 
1971 1 -0.952815 0.546624 -5.51543 
76 1 0.0721889 -0.596016 -5.4948 
2187 1 -0.126736 0.188769 -5.44216 
308 1 0.883262 -0.19678 -5.21548 
3383 2 1.84515 0.523506 -4.78038 
75 1 1.14524 -0.237171 -4.25221 
388 1 3.06603 0.0969425 -5.09417 
3449 2 2.02466 -0.251456 -4.92274 
3317 2 4.19579 -0.384433 -5.74353 
2848 2 4.13241 0.278893 -5.28452 
2021 1 4.97641 -0.684992 -4.98516 
556 1 5.41087 0.496919 -5.04813 
1472 1 5.95083 -0.316769 -5.36849 
1343 1 6.32498 0.415093 -5.10865 
1927 1 6.86359 -0.419806 -4.83298 
1353 1 -6.37205 1.13261 -5.56554 
3263 2 -6.72176 1.0802 -4.43729 
1238 1 -6.65192 2.07073 -5.53937 
83 1 -5.9387 2.11687 -4.87787 
1336 1 -5.67054 1.43763 -5.44661 
3062 2 -4.48267 1.99056 -4.85716 
1725 1 -5.63441 1.44827 -4.40178 
2861 2 -4.41997 1.12486 -5.04436 
2508 1 -3.29489 1.3703 -5.30209 
3117 2 -2.29007 1.40326 -5.67949 
2846 2 -2.14516 0.682563 -5.81831 
159 1 -2.54179 0.307895 -4.73167 
2589 1 -1.4806 1.03179 -5.05659 
603 1 -0.9731 1.85303 -5.05757 
1562 1 -0.366279 1.15204 -5.38804 
2647 1 0.362031 1.30155 -4.99582 
2150 1 2.11322 0.894346 -5.78452 
2080 1 1.20966 1.44072 -5.79506 
2673 1 0.73298 0.610781 -5.54617 
3443 2 1.72785 1.21354 -4.81513 
3241 2 1.51908 1.82526 -4.4919 
2730 1 2.93243 1.12512 -6.21101 
110 1 2.861 0.932165 -5.23954 
1677 1 2.72559 1.75233 -5.53983 
3364 2 4.02487 1.16559 -5.30815 
3388 2 3.83628 1.87921 -5.05923 
2380 1 5.8711 1.22621 -4.7684 
795 1 5.23132 1.24815 -5.44263 
82 1 4.8632 0.995038 -4.62751 
613 1 5.68095 2.01857 -4.67727 
377 1 4.88743 1.80683 -4.4495 
2276 1 6.61337 1.85777 -4.79715 
1207 1 7.0644 1.36069 -5.32836 
1910 1 -6.50315 2.86471 -4.9934 
561 1 -5.83866 3.15435 -4.49769 
443 1 -5.64163 2.78123 -5.20895 
964 1 -5.13813 2.15075 -5.74493 
1446 1 -5.59166 2.51135 -4.05528 
2845 2 -4.74813 2.71262 -4.49947 
803 1 -3.27589 2.05539 -4.80597 
1512 1 -3.55943 2.90403 -4.87253 
2945 2 -2.33927 2.24691 -5.39536 
2977 2 -2.3904 2.99287 -5.18105 
286 1 -2.74668 2.38493 -4.21369 
823 1 -1.21931 2.55253 -5.14046 
2813 2 -0.223039 2.89614 -5.73995 
14 1 -0.0704201 2.12388 -4.82165 
1998 1 0.668388 2.99684 -4.8331 
1763 1 -0.475733 2.83812 -4.72687 
2261 1 1.2909 2.68981 -5.71249 
1817 1 1.77408 3.2066 -5.10796 
1368 1 1.95722 1.9602 -5.69675 
867 1 0.71364 2.2364 -5.22395 
2463 1 3.07995 2.52886 -6.15155 
1978 1 2.53401 2.76581 -5.42994 
1923 1 3.56493 3.20854 -6.07814 
3433 2 3.65832 2.68615 -4.98208 
1574 1 4.5972 3.10653 -5.42629 
194 1 5.04491 2.08772 -5.43405 
3298 2 5.77026 3.11364 -5.61667 
723 1 6.9972 3.27558 -5.86958 
2433 1 6.76826 3.40947 -5.04411 
34 1 -7.19018 2.47134 -6.06791 
3414 2 6.08936 2.32737 -5.73946 
50 1 7.10195 2.52521 -5.02876 
1331 1 -6.88501 3.7683 -5.08067 
1899 1 -6.97936 4.77902 -4.97223 
3456 2 -4.81866 3.70382 -4.41376 
131 1 -5.58072 3.88437 -5.05511 
1481 1 -3.75537 4.11037 -5.44431 
912 1 -4.32965 3.51639 -5.44583 
966 1 -3.7471 3.68024 -4.76639 
754 1 -4.69479 4.52184 -5.4097 
2865 2 -2.52819 3.75721 -5.04911 
620 1 -1.24923 3.43374 -5.06248 
2603 1 -1.57538 4.42019 -5.36316 
2208 1 -0.960301 4.52292 -4.72271 
3378 2 -0.348994 3.7768 -5.64352 
3392 2 -0.417013 4.52848 -5.64964 
1505 1 0.230008 3.90787 -4.83504 
448 1 -0.58227 3.76554 -4.53639 
371 1 0.897813 3.48806 -5.46909 
84 1 1.89972 4.28394 -5.17777 
2379 1 2.59071 4.58027 -5.56887 
2894 2 3.56583 3.46658 -4.87165 
2814 2 3.50099 4.21754 -5.01653 
16 1 4.50233 4.80235 -5.7589 
284 1 4.67335 4.16416 -5.08886 
2917 2 5.81395 3.90256 -5.4366 
1092 1 6.34856 3.71464 -4.42957 
2414 1 6.85605 4.21448 -5.07168 
3238 2 -6.46495 4.63083 -5.95749 
3045 2 -6.72999 5.30218 -6.02313 
29 1 -5.87988 6.10678 -4.98247 
1229 1 -5.58882 4.81413 -5.06484 
896 1 -5.51632 5.49373 -5.58349 
587 1 -4.76617 5.40645 -5.27916 
1391 1 -3.7816 4.93447 -5.55982 
2033 1 -4.02301 5.85761 -5.14564 
1733 1 -3.74098 4.68777 -4.66971 
3458 2 -2.66617 4.41066 -4.78788 
2988 2 -2.73646 5.17195 -4.97294 
1775 1 -2.57308 5.42968 -6.1006 
3018 2 -0.723721 5.91931 -5.38289 
345 1 -1.68592 5.28696 -4.99681 
3207 2 -0.45288 5.2071 -5.49602 
1639 1 0.711612 5.11435 -5.8528 
1687 1 0.48154 4.83314 -4.91913 
301 1 1.63785 5.26525 -5.10711 
1848 1 1.07619 4.31973 -5.24791 
2429 1 0.847201 5.6978 -5.07639 
2048 1 2.7083 5.48856 -5.52143 
709 1 3.77459 5.23261 -5.66495 
189 1 4.32108 6.0337 -4.9195 
1827 1 4.70361 5.0938 -4.90494 
2927 2 5.72963 4.66654 -5.39265 
3257 2 5.46702 5.53963 -5.25072 
929 1 6.69584 5.56043 -5.1305 
1667 1 6.36423 5.94009 -5.80852 
1200 1 6.78551 5.02877 -5.79887 
3147 2 -6.71427 5.93084 -5.6693 
3330 2 -7.09122 6.64409 -5.45839 
297 1 -5.04902 7.17355 -5.01825 
1117 1 -5.92318 6.8422 -5.85968 
1184 1 -5.83767 7.0956 -4.83843 
2473 1 -4.99346 6.2229 -5.17686 
472 1 -4.06406 -7.15525 -5.2649 
1149 1 -3.92009 6.51911 -5.62043 
2462 1 -4.44473 7.10582 -4.44526 
2835 2 -3.11971 6.68253 -4.40967 
197 1 -3.0538 6.63099 -5.73894 
2635 1 -2.15465 6.25396 -5.55898 
1881 1 -1.64442 6.15278 -4.84687 
3455 2 -0.827531 6.64106 -5.10172 
1689 1 0.212933 7.07362 -5.42214 
2669 1 0.493531 6.09642 -5.63561 
949 1 0.273814 6.50481 -4.7596 
2899 2 1.32481 6.75342 -5.81795 
2469 1 2.85293 6.55693 -5.57678 
2096 1 2.06187 6.37108 -5.06329 
19 1 1.96548 -7.17193 -4.8944 
2483 1 4.21045 6.91248 -5.30883 
1311 1 4.40286 -6.9164 -5.75245 
1211 1 3.37587 -7.0775 -5.17762 
798 1 3.67879 6.28673 -5.53452 
2703 1 4.12856 6.96254 -4.54912 
522 1 5.3191 -7.20103 -5.90861 
2971 2 5.21069 6.285 -5.08313 
2926 2 5.19212 6.99089 -4.76625 
1153 1 6.39999 6.32261 -4.91873 
610 1 6.24224 6.92093 -5.6024 
1013 1 -6.478 -6.84457 -4.21518 
844 1 -6.79222 -6.25601 -3.65597 
58 1 -6.46752 6.97932 -3.47976 
1551 1 -4.39774 -6.35868 -4.0267 
3228 2 -5.6624 -6.45323 -3.53351 
2674 1 -4.79236 -5.59066 -4.36834 
3413 2 -3.14213 -6.77292 -4.43169 
1187 1 -4.35297 -6.26591 -3.10537 
3562 2 -3.43392 -6.04098 -4.13012 
30 1 -2.61702 -6.16637 -3.4906 
1665 1 -1.93196 -6.79162 -3.94853 
1593 1 -2.59036 -6.94191 -3.25339 
127 1 -1.30733 -6.11196 -3.856 
1327 1 -0.590885 -7.06097 -3.93225 
427 1 -0.359747 -6.29921 -4.12096 
1089 1 0.126449 -7.09325 -4.59035 
3236 2 0.590363 -6.70957 -3.46042 
799 1 0.994966 -7.0725 -4.48843 
224 1 0.425407 -6.24031 -4.34784 
586 1 1.75759 7.15361 -4.13704 
1130 1 1.39127 -6.30636 -3.95672 
2918 2 2.66022 -6.42411 -3.91106 
3303 2 2.97095 -7.06505 -4.15127 
834 1 4.47687 -5.98708 -3.38251 
112 1 3.82417 -6.39443 -4.19649 
2305 1 4.20915 -6.87001 -3.73962 
60 1 3.66897 -7.15071 -3.21453 
1461 1 5.36582 -6.22275 -3.29134 
538 1 5.48344 -6.93937 -3.65324 
2571 1 7.07828 -6.50805 -4.30452 
72 1 5.69517 -5.56692 -3.8179 
3375 2 -5.72667 -5.61489 -3.67519 
2521 1 -7.14616 -5.26746 -3.87418 
642 1 -4.83321 -4.80983 -4.6349 
2533 1 -5.57693 -5.26198 -4.73129 
683 1 -4.55743 -5.23393 -3.67089 
3536 2 -3.63045 -5.20468 -4.2827 
2044 1 -2.55169 -5.14305 -4.568 
1144 1 -2.20562 -5.59014 -4.02895 
1086 1 -2.23569 -4.63271 -3.50638 
2038 1 -0.601766 -5.39001 -3.80964 
1846 1 -1.58585 -5.18895 -3.70541 
3285 2 -1.55753 -4.79223 -4.63645 
1127 1 -0.182206 -5.17001 -4.46929 
486 1 0.816088 -5.46341 -4.2611 
2238 1 1.65404 -5.27259 -4.40721 
2491 1 1.1617 -4.70738 -3.67871 
247 1 1.51578 -4.40847 -4.381 
3379 2 2.69341 -5.71241 -3.71103 
3230 2 2.36938 -4.99889 -3.73596 
1019 1 3.56596 -5.58231 -4.32176 
2145 1 3.897 -5.33292 -3.50712 
2722 1 3.36586 -4.59618 -3.95901 
2825 2 4.81682 -6.01023 -4.39195 
1364 1 5.34093 -4.96363 -3.4801 
3340 2 4.58375 -5.1815 -4.41186 
997 1 4.65964 -4.92882 -3.16108 
2659 1 5.78693 -4.99143 -4.51217 
1994 1 6.58415 -5.62924 -4.21733 
2507 1 6.3941 -4.835 -3.89062 
2670 1 -6.52823 -4.42862 -4.31689 
1851 1 -6.82179 -3.19648 -4.3535 
1354 1 -5.93831 -3.623 -4.31802 
2323 1 -5.49709 -4.36293 -4.24207 
1542 1 -4.88521 -4.3216 -3.68492 
1182 1 -4.85673 -3.43301 -4.44501 
3376 2 -3.67716 -4.50673 -3.97776 
3083 2 -3.94586 -3.71301 -3.75978 
520 1 -2.63277 -4.35589 -4.29188 
1140 1 -3.50318 -3.81676 -4.85506 
2052 1 -0.920282 -4.60199 -3.65624 
3198 2 -1.6844 -3.99422 -4.58151 
1380 1 -1.15288 -3.76664 -3.52793 
2916 2 -1.77033 -3.27228 -4.30182 
1491 1 -0.40654 -4.16609 -4.4778 
1422 1 0.424203 -4.45162 -4.12876 
2105 1 0.49272 -3.54664 -4.06882 
3320 2 2.0117 -3.43122 -3.46551 
1608 1 1.25908 -3.66696 -4.28575 
1967 1 3.23325 -3.98308 -4.50478 
3015 2 2.24736 -4.17667 -3.59234 
169 1 3.09496 -3.16465 -4.17183 
3244 2 4.42875 -4.4296 -4.20697 
2857 2 4.3239 -3.63509 -4.19699 
812 1 3.24587 -3.82502 -3.47119 
168 1 4.92962 -4.14016 -3.30238 
451 1 5.50829 -4.22427 -3.86827 
1226 1 5.47865 -3.36273 -4.33682 
1961 1 5.23941 -3.24105 -3.55871 
3080 2 6.54624 -3.82798 -4.74839 
1428 1 6.26193 -3.98717 -3.63988 
753 1 6.96567 -3.27112 -3.58398 
2646 1 -7.0301 -3.96106 -3.77651 
2612 1 -6.6339 -2.28382 -3.90636 
1548 1 -7.00186 -2.20434 -4.84449 
1392 1 -5.13531 -2.61754 -4.18328 
56 1 -5.7424 -1.83669 -3.61667 
1031 1 -5.14212 -1.73102 -4.39681 
2375 1 -5.95184 -2.80392 -3.97185 
874 1 -3.63719 -2.41831 -4.33409 
3229 2 -4.24276 -2.88658 -3.62958 
737 1 -2.94624 -2.61911 -3.78201 
3447 2 -4.39715 -2.13004 -3.44443 
2302 1 -3.41675 -1.58089 -3.89771 
2766 2 -1.9705 -2.44304 -4.27306 
1285 1 -3.00203 -3.40416 -4.06434 
2748 2 -2.0241 -1.6586 -3.98766 
2263 1 -0.818205 -2.58067 -3.9851 
1028 1 -0.394845 -3.38579 -3.96085 
180 1 -1.20732 -2.854 -3.21234 
2540 1 0.262975 -2.63637 -3.71173 
692 1 0.974546 -2.66074 -4.32313 
566 1 1.18383 -1.96203 -4.90162 
1239 1 0.99227 -1.75637 -3.93654 
2558 1 1.9311 -2.54998 -4.41827 
27 1 2.76613 -2.37993 -3.95881 
1653 1 3.09654 -2.77599 -3.27889 
3353 2 4.12698 -2.89251 -3.94592 
3134 2 3.97279 -2.11367 -4.10589 
960 1 5.16765 -2.44729 -4.18747 
721 1 6.02693 -3.10418 -3.53372 
2233 1 6.77263 -2.44151 -3.61006 
2657 1 5.85763 -2.15376 -3.38511 
3267 2 -6.33305 -0.537311 -4.7649 
2132 1 -6.7453 -0.339846 -3.77147 
2351 1 -6.39592 -1.32957 -3.76791 
1294 1 7.1534 -1.68766 -3.9517 
318 1 -5.2936 -0.881597 -3.97496 
1790 1 -4.76995 -0.809792 -4.62955 
2480 1 -3.97453 -0.95527 -4.42651 
596 1 -3.3185 -1.09623 -3.1754 
965 1 -3.22244 -1.32155 -4.56295 
2789 2 -2.31773 -0.997079 -4.04271 
1441 1 -1.31558 -0.719924 -4.65064 
749 1 -0.427342 -1.91827 -3.58674 
1195 1 -0.972533 -1.54424 -4.13158 
2400 1 -0.770147 -0.981574 -3.34259 
3585 2 -0.106259 -0.946476 -4.5121 
393 1 0.835776 -0.885786 -3.77563 
2411 1 1.44428 -1.16203 -4.25289 
876 1 1.9011 -0.636192 -3.80406 
656 1 2.99597 -1.75755 -4.52633 
167 1 2.05557 -1.78437 -4.31495 
1300 1 2.61174 -0.773782 -4.28234 
1911 1 4.18262 -1.18637 -4.79012 
2914 2 3.74806 -1.42483 -3.73179 
3483 2 3.38582 -0.730722 -3.50591 
734 1 4.94139 -1.51731 -3.67351 
1340 1 4.98106 -0.544454 -3.51319 
3116 2 6.05982 -1.4665 -4.30988 
2856 2 5.80123 -0.648593 -4.24888 
1672 1 6.9121 -0.735624 -3.61579 
1568 1 -6.8314 0.53176 -3.48443 
2054 1 -6.26359 1.1036 -3.1718 
1151 1 -4.95436 0.196243 -4.57007 
1671 1 -3.29166 -0.413072 -4.69526 
594 1 -3.41872 0.476162 -4.58334 
1458 1 -4.07088 -0.172096 -4.4106 
2448 1 -4.81602 0.909367 -4.01639 
1214 1 -3.9343 0.606867 -3.86218 
1815 1 -3.67287 -0.501381 -3.6549 
3490 2 -2.66591 -0.430901 -3.75097 
3588 2 -2.79673 0.348447 -3.65967 
605 1 -1.3511 -0.216023 -3.91524 
1623 1 -1.78092 0.637914 -4.20488 
3500 2 -0.262681 -0.229932 -4.4115 
3555 2 -0.429591 0.516864 -4.41582 
1065 1 0.0922492 0.619636 -3.34026 
1432 1 1.37194 0.342901 -3.60871 
2460 1 2.36028 0.964159 -3.53155 
295 1 0.727187 0.460437 -4.59391 
2237 1 0.433648 -0.034767 -3.55929 
1085 1 2.99666 0.098175 -4.22125 
130 1 3.35348 -0.964397 -4.74146 
504 1 3.85161 -0.229503 -4.27615 
665 1 3.71039 0.746023 -4.33727 
1524 1 4.32714 1.21234 -3.94992 
3305 2 3.37494 0.0516017 -3.27469 
1325 1 4.45837 0.299974 -3.72226 
2231 1 4.54378 -0.773285 -4.21906 
423 1 4.7695 0.0632211 -4.44767 
2819 2 5.3964 0.901567 -3.61068 
2902 2 5.69545 0.191263 -4.01284 
2584 1 6.5815 0.85062 -4.31704 
49 1 6.91149 0.000488871 -4.09248 
3260 2 -6.71257 1.89966 -4.09549 
1880 1 -5.80243 1.76799 -3.58127 
697 1 -5.86315 0.809769 -3.78483 
731 1 -4.77531 1.65123 -3.80896 
2395 1 -3.45194 1.31964 -4.33281 
521 1 -3.94545 1.66517 -3.65777 
330 1 -2.55159 1.22992 -4.53543 
3120 2 -2.78109 1.15715 -3.3244 
640 1 -1.79454 1.47379 -3.46505 
954 1 -1.35547 1.8523 -2.78109 
2950 2 -0.637787 1.1535 -4.07463 
3196 2 -0.732106 1.95085 -3.90665 
1993 1 0.5648 1.65284 -4.07382 
2713 1 0.760603 0.948047 -4.03541 
892 1 1.39375 1.22435 -3.55434 
2407 1 2.88659 0.969006 -4.24883 
2135 1 2.72364 1.67149 -4.70262 
1788 1 3.40187 1.70283 -4.06679 
925 1 4.36186 2.10551 -3.91548 
2201 1 4.55117 1.26527 -3.1287 
3209 2 5.75096 1.51468 -3.69123 
3369 2 5.41059 2.18428 -3.35132 
2087 1 6.58964 2.0162 -3.96809 
3033 2 -6.96478 2.67956 -3.97983 
3021 2 -6.93665 3.53202 -4.11373 
1169 1 -4.96194 2.39087 -3.50759 
1148 1 -3.77601 2.26699 -4.15759 
1793 1 -4.12668 2.67078 -3.44747 
978 1 -3.81736 3.14291 -4.00535 
1367 1 -1.91384 2.32563 -3.97676 
1257 1 -2.9562 3.32303 -4.19658 
3372 2 -2.87994 1.91675 -3.32353 
883 1 -1.65256 1.61593 -4.42548 
46 1 -1.69821 3.00115 -4.4076 
2860 2 -0.883911 2.72757 -3.77076 
3006 2 -1.07802 3.50599 -3.55865 
1486 1 0.324145 2.55742 -3.97892 
3063 2 1.44573 2.49353 -4.21158 
1375 1 1.11378 2.01042 -3.26533 
3479 2 1.39044 3.46249 -3.99124 
785 1 0.649146 3.24107 -3.11491 
941 1 2.48487 2.41464 -4.77532 
414 1 2.39289 1.73662 -3.81242 
2575 1 2.47591 3.07094 -4.17682 
2650 1 2.19302 2.45241 -3.34203 
2084 1 2.78441 2.38691 -3.97505 
441 1 3.53972 2.67775 -3.63688 
376 1 5.08543 2.72298 -4.66772 
2976 2 5.429 2.8049 -3.70276 
2147 1 6.32039 2.84779 -4.38499 
1282 1 6.59882 2.68553 -3.13056 
2297 1 -6.21305 4.20218 -4.68187 