ITEM: TIMESTEP
14600
ITEM: NUMBER OF ATOMS
3594
ITEM: BOX BOUNDS pp pp pp
-7.2040160362851120e+00 7.2040160362851120e+00
-7.2040160362851120e+00 7.2040160362851120e+00
-7.2040160362851120e+00 7.2040160362851120e+00
ITEM: ATOMS id type x y z 
1258 1 6.81269 -7.18833 7.08051 
558 1 7.1431 -7.04966 -6.53047 
1616 1 -6.17048 -6.87269 -6.05096 
2023 1 -5.81825 -6.3137 -6.5138 
1246 1 -4.42219 -5.86065 -6.70319 
2612 1 -3.76626 -6.23259 -5.86178 
1654 1 -3.75297 6.76062 -6.75632 
3454 2 -2.34811 6.4507 -6.76211 
3268 2 -2.43158 -7.17163 -6.52188 
26 1 -0.524642 -6.86055 -5.91157 
360 1 -1.58967 -6.19731 -7.03054 
1107 1 0.272003 -6.59956 -6.12824 
3537 2 -0.371956 -6.53076 -7.027 
1905 1 0.353081 -5.14599 7.16097 
1582 1 -0.969661 -5.56169 -5.77368 
1088 1 0.796842 -6.0044 -6.92484 
2415 1 2.02384 7.03313 -6.85483 
798 1 0.586277 6.50284 -6.54521 
245 1 2.33049 -6.48975 -6.49971 
2623 1 2.86678 -6.34689 -7.04926 
3442 2 3.48735 -6.39672 -6.08782 
1100 1 4.59172 -6.02892 -7.16091 
209 1 4.48116 -6.44665 -6.4232 
589 1 4.6256 -7.1496 -5.67115 
2812 2 5.63384 -5.73488 -6.64041 
3208 2 5.57301 -6.40592 -6.617 
1263 1 6.30382 -6.07193 -5.60628 
2009 1 6.73756 -6.14056 -7.11429 
3495 2 -6.66701 -4.83717 -6.92042 
1437 1 -6.80064 -6.31837 -6.2023 
2015 1 -6.70525 -4.72006 -5.58207 
3366 2 -6.4331 -5.4785 7.19338 
1282 1 -6.00643 -5.49612 -6.09958 
1918 1 -5.33359 -5.67951 -6.90393 
1354 1 -5.75728 -4.43925 -7.04523 
923 1 -5.18857 -4.95039 -6.6163 
2122 1 -3.69074 -5.59832 -6.8114 
2944 2 -2.61797 -6.41476 -6.51708 
3574 2 -2.72444 -5.67959 -6.33651 
2238 1 -1.45035 -4.76371 -5.61952 
520 1 -1.70948 -5.36932 -6.40941 
3019 2 -0.635531 -4.9469 -6.80347 
1966 1 0.734134 -5.49913 6.32907 
527 1 0.847567 -5.23373 -6.51166 
3368 2 -0.454257 -5.79926 -6.90553 
40 1 1.53296 -5.6436 -6.47498 
2379 1 2.61497 -5.54994 -6.59215 
1168 1 2.6686 -4.86734 -7.04078 
1073 1 2.02038 -4.73855 -6.43663 
2957 2 3.45251 -5.59749 -5.97063 
1215 1 4.38184 -5.02701 -6.71366 
628 1 4.60011 -5.6747 -6.22736 
1695 1 4.15777 -4.39276 -5.98364 
3212 2 5.56032 -4.94095 -6.48389 
645 1 4.96654 -5.25647 6.94175 
1954 1 6.86889 -5.92653 -6.24107 
2479 1 6.64052 -4.57127 -6.56272 
10 1 6.65442 -5.24532 -6.97804 
3029 2 -6.91397 -4.16228 -6.91707 
2975 2 -7.14653 -3.3588 -6.99561 
1671 1 -5.23632 -4.05489 -6.34122 
1392 1 -5.91121 -3.35556 -7.07116 
355 1 -6.04655 -4.49966 -6.02637 
2699 1 -4.4072 -3.86427 -6.35576 
1361 1 -4.24446 -4.72546 -6.59924 
2981 2 -2.92727 -5.01461 -5.96203 
386 1 -2.86533 -4.13369 -7.11491 
2706 1 -2.62154 -3.44074 -7.02787 
3061 2 -3.02914 -4.19285 -6.01199 
3484 2 -0.848557 -4.27184 -6.61598 
2808 2 -1.16981 -3.50398 -6.47083 
2549 1 -2.13819 -3.52633 -6.24765 
502 1 0.446905 -4.31574 -6.48588 
2368 1 0.119917 -4.37282 6.92965 
579 1 1.17604 -4.41351 -6.26319 
3158 2 1.11869 -3.81758 7.02245 
2178 1 0.769523 -3.6665 -5.9606 
1425 1 2.35438 -4.03245 -6.88471 
2599 1 2.30623 -3.34688 7.00618 
1738 1 3.2981 -3.76312 -7.00747 
2631 1 4.53869 -4.33918 7.19311 
2407 1 3.49151 -4.80879 -6.86875 
2183 1 5.30106 -3.02223 7.06837 
1976 1 3.88431 -4.14728 -6.73048 
3266 2 5.35232 -4.21402 -6.48497 
2767 2 5.05796 -3.51623 -6.34291 
802 1 6.74234 -4.7092 -5.85967 
1788 1 5.79364 -2.68773 -6.62222 
83 1 -5.70747 -2.6094 -6.29873 
2126 1 -6.32052 -2.17586 -6.69103 
2132 1 -5.33138 -1.67562 -6.02408 
1581 1 -4.98731 -3.09375 -6.23461 
1315 1 -4.56505 -1.97324 -6.49111 
1445 1 -4.12349 -2.75386 -6.63985 
1370 1 -3.14199 -2.78292 -6.8551 
433 1 -2.07376 -2.79712 7.06993 
821 1 -2.52783 -2.13115 -6.91523 
321 1 -1.58476 -3.59898 6.91048 
3332 2 -1.44712 -2.73659 -6.45335 
2589 1 -0.0210935 -3.71554 -6.96857 
2480 1 -0.823384 -3.2106 -5.37706 
1767 1 0.094267 -3.00117 -6.18335 
3503 2 1.00845 -3.26051 -6.91797 
799 1 1.77894 -3.85157 -6.33596 
1635 1 2.2339 -3.06214 -6.67578 
2390 1 2.03481 -2.07251 -6.86799 
2500 1 4.31125 -3.32055 -6.94811 
388 1 3.76093 -3.46833 -6.03541 
985 1 3.19991 -2.9287 -6.46283 
3550 2 4.70195 -2.99064 -6.07594 
2254 1 5.99885 -2.60118 7.029 
2972 2 4.70074 -2.20565 -5.90247 
3126 2 7.10666 -2.5659 -6.74676 
734 1 5.8489 -2.40208 -5.87944 
351 1 6.55902 -3.47764 -6.05541 
1340 1 -6.19338 -1.6082 -6.21402 
1369 1 -6.84187 0.0336205 -6.86869 
194 1 -5.84891 -0.712945 -5.82558 
2578 1 -4.99324 -0.856034 -6.17456 
3360 2 -5.52809 -1.00983 -7.10412 
2677 1 -4.50292 -0.473651 7.10317 
911 1 -4.27776 -1.16286 -6.57056 
1457 1 -3.30955 -0.739655 -6.49573 
2289 1 -3.37555 -1.75131 -6.65377 
395 1 -2.52234 -1.14036 -6.80897 
3234 2 -1.52935 -1.89622 -6.41145 
3105 2 -1.69421 -1.08091 -6.21305 
1094 1 -0.886102 -0.335258 -6.67041 
1106 1 -0.423716 -1.69088 -6.25079 
2804 2 0.686676 -1.64262 -6.85699 
1618 1 0.390104 -2.07123 -5.871 
1057 1 -0.767289 -1.48511 -5.46477 
3347 2 0.911698 -2.496 -6.91874 
1837 1 1.10793 -1.60018 -5.86719 
1374 1 1.59742 -0.734469 -6.77843 
925 1 1.85499 -1.24034 -6.23256 
1834 1 2.82607 -2.05509 -6.37854 
2558 1 2.75901 -0.980199 -6.2241 
2535 1 3.59468 -1.65071 -6.46334 
483 1 3.09607 -0.255703 -6.20325 
2995 2 4.50432 -1.40161 -5.87676 
1698 1 4.04153 -1.64375 -7.19685 
377 1 5.76058 -1.64806 -6.1583 
1414 1 5.47199 -0.759372 -6.05096 
2530 1 4.47641 -0.484326 -6.8861 
3087 2 6.88964 -1.79927 -6.60641 
2840 2 6.7078 -0.990298 -6.43271 
806 1 -7.16726 0.893013 -6.39061 
3097 2 -5.59688 -0.310035 -7.02143 
3127 2 -5.68249 0.305325 -6.6915 
979 1 -4.7893 0.160754 6.61756 
2641 1 -4.88106 -0.0438222 -5.90019 
2300 1 -4.17465 -0.175181 -6.45445 
1238 1 -3.05862 -0.138826 -5.58178 
2320 1 -2.86765 1.23815 -6.66436 
1815 1 -3.12331 0.172377 -6.50653 
1993 1 -1.24371 0.349375 -6.7182 
1116 1 -2.38081 0.637698 -7.07366 
28 1 -0.581781 0.315958 -5.95481 
3200 2 -2.04052 -0.301318 -6.07251 
2108 1 -0.422995 -0.701851 -6.05726 
3151 2 0.524799 -0.747735 -6.6472 
3088 2 0.25978 0.0714046 -6.69446 
1938 1 1.31673 -0.353948 6.83688 
1368 1 1.1764 1.08095 -6.75449 
2960 2 2.45179 0.347061 -7.11994 
42 1 2.30077 -0.104127 -6.08204 
1241 1 1.47131 0.178034 -6.43451 
2380 1 3.59966 0.266583 -6.679 
2086 1 4.59224 0.427192 -6.64176 
1398 1 4.85347 1.56468 -6.30244 
263 1 5.24251 -0.0271177 -6.45647 
2797 2 6.50174 -0.247515 -6.25495 
3135 2 6.33671 0.534347 -6.01414 
3140 2 -5.90074 1.77713 -6.59065 
2151 1 6.98413 1.82828 -5.65172 
3007 2 -5.92056 0.976906 -6.88643 
1584 1 -7.19269 1.80149 -6.49737 
1455 1 -7.11312 2.31345 7.13488 
1027 1 -4.72089 0.398008 -6.87631 
2523 1 -5.0233 1.6762 -6.07588 
625 1 -4.82831 1.25832 -6.96941 
2180 1 -4.10188 0.775196 -6.2725 
2560 1 -3.74295 1.37924 -5.92749 
3148 2 -3.82362 1.38933 7.07172 
580 1 -3.26008 0.6729 -5.86966 
2037 1 -2.1484 1.83755 -6.95396 
1265 1 -1.52184 1.2511 -6.94785 
1257 1 -1.10257 1.23829 -6.28628 
1978 1 -0.758515 0.528973 7.07889 
3311 2 0.0333381 0.853651 -6.59985 
2928 2 0.0666691 1.56 -6.30258 
221 1 0.914171 1.85292 -6.73332 
673 1 0.97415 2.60406 -6.32825 
225 1 0.642325 1.35508 6.97451 
3459 2 2.21344 1.18588 -6.96761 
850 1 4.06642 1.22832 -6.52071 
530 1 3.03456 0.66608 -5.97667 
1176 1 3.24455 1.41402 -6.38687 
50 1 3.90409 2.09996 -6.29988 
74 1 3.33789 2.48724 6.51484 
1681 1 5.79655 -0.164934 -6.99267 
1092 1 5.55545 -1.05468 -6.81352 
122 1 6.84137 1.2808 -7.07128 
3038 2 6.0563 1.27371 -6.21245 
1684 1 5.98944 0.762161 7.14782 
3465 2 -6.35674 2.4227 -6.36318 
2736 2 -6.56757 3.24292 -6.18006 
2685 1 -4.96169 2.14287 -6.89846 
3093 2 -3.95107 2.10477 -7.16847 
2783 2 -3.82573 3.00326 -6.99878 
1965 1 -3.24512 1.9137 -6.12377 
1499 1 -2.22508 4.28025 -6.22718 
732 1 -2.94702 2.68489 -6.45989 
1056 1 -1.76118 3.44904 -6.34562 
561 1 -2.16386 2.60598 -6.62659 
1933 1 -1.36524 2.91107 -5.7712 
1353 1 -1.19765 2.43014 -6.7115 
3078 2 -0.0665141 2.30937 -6.09784 
3444 2 -0.298943 3.04908 -6.13894 
855 1 -0.505204 2.5205 6.41582 
1525 1 -0.0493533 2.13174 7.08933 
2522 1 0.98056 3.40022 -6.12523 
3417 2 2.06492 2.63663 -6.64676 
3393 2 2.02588 1.93051 -6.92938 
1286 1 3.36199 2.82756 -6.15684 
785 1 2.78457 2.31254 -5.95859 
2231 1 4.30591 2.96124 -6.12067 
565 1 3.16183 2.20632 -6.79217 
2765 2 4.27248 3.17056 7.10372 
2066 1 4.76224 3.72349 -6.35068 
2711 1 5.63116 3.96869 -6.69072 
889 1 4.99558 2.8505 -6.62802 
2377 1 5.75461 2.90273 -6.90362 
2072 1 6.08753 1.94546 -7.16846 
2305 1 6.53607 2.66592 -6.65463 
1927 1 6.32476 3.57118 -6.50123 
3060 2 5.95088 2.00189 -5.94995 
3238 2 -6.55439 4.00296 -6.08966 
402 1 -4.92665 4.57482 6.53251 
718 1 -6.47921 4.90124 -6.82325 
789 1 -5.39343 4.814 -6.25403 
2010 1 -5.3981 3.89166 -6.34376 
3408 2 -4.42449 3.37627 -6.82682 
3411 2 -4.11283 4.16478 -6.73956 
343 1 -3.42011 3.4325 -6.14216 
1894 1 -2.76262 3.36272 -6.73288 
1102 1 -2.97843 4.39616 -6.30709 
1932 1 -1.04264 3.31074 -6.78149 
474 1 -0.30938 4.04526 -6.99006 
2508 1 0.337942 3.43718 -6.92858 
1817 1 -0.265746 2.93049 7.18051 
2429 1 0.732198 4.2283 -6.20422 
1016 1 0.953271 4.5925 -6.84547 
3478 2 1.93881 3.34994 -6.44672 
3466 2 1.97471 4.22701 -6.32203 
430 1 3.00341 4.41945 -6.66094 
268 1 3.96773 3.69628 -6.00409 
3551 2 4.17442 4.0483 -7.11623 
404 1 6.33213 4.46802 -6.1635 
1247 1 4.57431 4.59915 -5.85815 
255 1 5.04245 4.72163 -7.1384 
131 1 6.90787 2.73263 -5.91971 
1760 1 6.76713 3.68426 -5.82184 
577 1 7.06342 4.15043 -6.66493 
1413 1 -6.93964 4.15325 6.85783 
1318 1 -5.54037 5.76299 -5.70779 
3471 2 -4.34113 4.84375 -6.4792 
2662 1 -5.43183 6.325 -6.77222 
3463 2 -4.34526 5.47583 -6.25067 
2576 1 -3.13241 4.18683 -7.13743 
989 1 -3.64 4.2137 -5.78425 
59 1 -3.30499 5.20743 -6.77568 
3306 2 -1.90638 4.55762 -7.16373 
2839 2 -2.02788 5.28353 7.16924 
883 1 -3.21818 5.29082 -5.84998 
1623 1 -1.14838 4.07275 -6.50785 
1253 1 -1.43957 5.39673 -6.17139 
2630 1 -0.917366 4.84528 -6.78025 
849 1 -0.0399729 4.71981 -6.62423 
3138 2 1.83851 4.9183 -6.15537 
2831 2 1.66949 5.70221 -6.13694 
1261 1 2.11321 5.27743 7.07381 
1486 1 0.610661 5.19813 -5.7869 
2322 1 0.890233 5.42102 -6.91565 
1505 1 2.68127 4.66052 6.90026 
1923 1 2.9396 5.11857 -5.88704 
3223 2 3.88372 4.86673 -6.68791 
2790 2 3.89206 5.7415 -6.65792 
795 1 5.36219 4.85801 -6.36021 
274 1 5.9032 5.66385 -6.06808 
865 1 4.60676 5.58999 -5.87318 
302 1 5.10971 5.77533 -6.57886 
2594 1 6.72356 4.78755 -5.47925 
2160 1 6.97399 5.80914 -6.3743 
1879 1 -5.74758 5.56598 -6.50066 
66 1 -6.33146 6.76946 -6.42599 
2396 1 -5.53808 -7.20105 -6.70756 
3477 2 -4.54704 6.85567 -5.92189 
3150 2 -4.55826 6.12979 -6.0262 
1235 1 -3.14006 6.56275 -5.62863 
1619 1 -3.38719 6.1487 -6.52054 
262 1 -4.55974 6.87702 -7.12988 
1140 1 -2.6013 5.9473 -5.64984 
2832 2 -2.51574 5.77644 -7.01153 
345 1 -1.07252 5.97478 -6.99833 
2326 1 -1.47768 6.31428 -6.25523 
448 1 -0.589502 6.60691 -6.21399 
1652 1 -0.472592 5.63484 -6.61979 
3259 2 -0.236432 7.04288 7.13154 
1567 1 0.160033 6.89642 -6.0305 
1685 1 1.29142 6.70774 -7.09987 
725 1 2.22155 6.20408 -7.11482 
486 1 2.83032 5.34274 -6.79222 
215 1 3.04215 6.24702 7.12745 
3569 2 3.70699 6.42746 -6.46122 
3587 2 3.47062 7.12764 -6.18963 
1724 1 4.97177 6.69591 -6.34025 
2787 2 5.8309 -7.11379 -6.78826 
1295 1 4.39416 6.38072 -5.54987 
112 1 -6.59402 5.81997 -6.94988 
3539 2 5.91962 6.49559 -6.98202 
2136 1 6.52639 -6.88288 -5.92986 
1051 1 5.51074 6.30687 -5.8308 
1530 1 -7.14095 6.55153 -6.70019 
2574 1 -5.90704 -6.48332 -4.89318 
3487 2 -7.1779 -6.63025 -5.00435 
1555 1 -6.22845 -7.14206 -4.41215 
3520 2 -4.96096 -6.77334 -5.88072 
1148 1 -4.97739 7.05775 -4.87618 
1396 1 -4.23036 6.4852 -4.8593 
977 1 -3.40461 -7.13699 -5.94834 
964 1 -3.85908 -7.13582 -5.16472 
1725 1 -4.21098 -6.3413 -4.98773 
2627 1 -1.30015 -6.47901 -6.11163 
1836 1 -2.0194 -6.10055 -5.67239 
1691 1 -2.95437 -6.41087 -5.29573 
1227 1 -2.44546 7.00496 -5.49643 
3594 2 -1.00924 -6.43433 -4.8382 
2491 1 -0.277311 -6.06499 -5.69787 
1881 1 0.19426 -6.30219 -5.05256 
3128 2 1.29056 -6.42785 -5.43035 
2978 2 1.34278 7.18472 -5.64395 
1634 1 1.47535 -6.49079 -6.59667 
1416 1 1.72768 -6.18015 -4.61928 
2256 1 2.03152 -5.67365 -5.8403 
862 1 2.19956 -6.94112 -4.85602 
1992 1 2.63815 -5.91507 -5.09148 
893 1 3.8543 -6.47337 -5.00093 
281 1 4.52278 -6.34525 -5.49002 
1175 1 3.01924 -6.84765 -5.11632 
329 1 5.47206 -6.32172 -5.53353 
3290 2 4.85683 -6.57523 -4.42019 
2926 2 5.13964 7.08385 -4.58365 
538 1 6.13488 -6.96189 -4.75863 
2288 1 6.62443 -6.91518 -4.07291 
317 1 5.89639 -6.07833 -4.69325 
639 1 -6.96456 -5.39359 -6.04474 
2045 1 -6.18121 -5.88735 -5.51833 
3416 2 -5.06332 -6.01452 -5.71649 
1718 1 -5.78977 -5.62108 -4.53555 
3325 2 -5.03062 -5.21524 -5.57299 
2727 1 -4.21359 -5.30372 -4.83578 
1784 1 -4.03692 -5.22795 -5.97573 
1344 1 -3.46083 -5.54244 -5.15473 
909 1 -2.014 -5.32984 -5.4407 
2426 1 -3.00417 -4.80779 -4.94395 
2139 1 -2.29298 -4.47766 -5.2177 
15 1 -0.691696 -4.68153 -5.47972 
3322 2 -1.18113 -5.72488 -4.62856 
1210 1 0.293858 -5.72724 -6.1168 
842 1 0.134014 -4.90488 -5.81708 
1643 1 -0.118826 -5.47449 -5.05506 
2826 2 1.0722 -5.5949 -5.35572 
3068 2 0.937188 -4.84799 -5.10611 
2113 1 2.26005 -5.00721 -5.396 
2933 2 3.19224 -4.92585 -5.70717 
2145 1 2.97417 -4.84286 -4.70081 
1075 1 1.91265 -5.24293 -4.64394 
2462 1 4.21008 -5.6092 -5.35654 
224 1 3.4672 -5.65692 -4.79473 
2656 1 5.05112 -4.16017 -5.30243 
85 1 5.24935 -5.56648 -5.45576 
2828 2 -7.04394 -5.90104 -4.82471 
3010 2 7.03883 -5.16179 -4.78622 
1373 1 6.19921 -5.31366 -5.71589 
1526 1 5.73132 -4.80531 -5.19244 
346 1 -6.88259 -3.11514 -5.07624 
472 1 -6.55346 -3.88125 -5.39608 
1872 1 -6.19072 -5.04563 -5.09348 
2912 2 -5.16794 -4.40122 -5.31392 
2737 2 -5.57915 -3.60916 -5.18166 
1800 1 -4.12561 -4.37099 -5.8002 
1071 1 -3.73205 -4.42221 -5.07792 
1465 1 -3.79502 -3.78153 -4.78449 
2248 1 -2.94232 -3.85879 -4.72975 
128 1 -2.1216 -3.48325 -5.35789 
2524 1 -2.7703 -4.3979 -4.06756 
995 1 -1.33665 -3.87267 -5.48028 
484 1 -2.31134 -2.78309 -5.34326 
2102 1 -0.157694 -4.70671 -4.57245 
139 1 -0.214667 -3.75535 -5.90266 
1722 1 -0.59293 -3.93263 -4.9996 
2768 2 0.582886 -4.08448 -5.10376 
3227 2 0.491078 -3.48538 -4.70829 
891 1 1.89605 -4.2134 -5.41808 
480 1 2.64873 -3.77618 -4.40153 
3249 2 3.01639 -4.21113 -5.84133 
3014 2 2.70709 -3.56629 -5.63194 
1237 1 2.23551 -4.41059 -4.69848 
250 1 1.61361 -3.17629 -5.87621 
665 1 3.96258 -4.69382 -5.21245 
1385 1 4.29641 -3.7553 -5.27039 
847 1 4.81441 -4.87448 -5.54638 
1034 1 5.50526 -3.42382 -5.03278 
190 1 4.77837 -2.8625 -4.93606 
1320 1 6.07064 -4.10197 -5.60138 
659 1 -7.11862 -3.77877 -5.87843 
3080 2 6.92648 -4.37002 -4.83505 
304 1 -6.25557 -3.49421 -6.33451 
1999 1 -7.06603 -2.31767 -4.78514 
670 1 -6.70167 -2.77716 -5.92439 
2890 2 -5.68888 -2.82388 -5.18413 
2974 2 -6.03484 -2.05794 -5.01891 
1446 1 -4.53006 -2.71985 -4.97878 
2310 1 -3.60343 -2.58648 -4.57689 
477 1 -4.35705 -3.41325 -5.45015 
56 1 -4.77505 -2.31288 -5.74693 
3041 2 -3.29795 -3.54386 -5.86212 
1979 1 -2.85732 -2.98506 -4.81272 
37 1 -2.57114 -2.77641 -6.15696 
871 1 -2.81266 -2.08912 -4.88864 
1380 1 -1.99712 -1.97481 -5.21856 
1953 1 -1.36823 -2.58142 -5.22935 
3430 2 0.142149 -2.79228 -4.81898 
84 1 1.6442 -2.39859 -6.08189 
1946 1 0.858511 -2.77593 -5.69773 
2830 2 2.4954 -2.75626 -5.366 
1472 1 3.3639 -2.95969 -4.63333 
1859 1 3.56993 -2.26752 -5.66435 
1313 1 3.94809 -2.86309 -5.30459 
72 1 4.37233 -2.18192 -4.88967 
110 1 3.15875 -2.17091 -4.61389 
1496 1 5.51454 -2.36903 -5.14301 
452 1 5.87825 -3.20105 -5.67861 
3173 2 6.61121 -3.79281 -4.49278 
656 1 6.60909 -2.04136 -5.52421 
1207 1 6.7553 -2.86423 -5.43335 
2858 2 6.34633 -2.85879 -4.46407 
1301 1 6.90418 -1.3521 -4.93208 
2993 2 -6.32255 -1.22342 -4.85364 
90 1 -5.71302 0.248878 -5.66732 
1145 1 -7.1305 -0.895843 -5.55367 
3267 2 -6.29951 -0.341923 -4.56394 
1514 1 -5.05191 -1.50574 -5.17117 
1835 1 -4.64224 -1.01812 -4.4731 
2869 2 -3.52428 -2.71131 -5.67337 
2844 2 -3.84467 -1.95648 -5.67448 
1790 1 -2.55223 -1.94994 -5.97514 
400 1 -1.39676 -1.33835 -5.01988 
2718 1 -2.76744 -1.22398 -5.83487 
1864 1 -3.53724 -1.62968 -4.43948 
2105 1 -0.666696 -2.32634 -5.59112 
2395 1 -1.03332 -2.02608 -4.61828 
2605 1 -1.57657 -0.236035 -4.76676 
3354 2 0.0868529 -2.08376 -4.69761 
1890 1 0.167326 -1.13738 -5.64178 
202 1 1.28381 -2.24042 -5.20917 
2434 1 1.1423 -1.0771 -4.95723 
3356 2 2.24711 -1.9878 -5.38991 
3557 2 2.22982 -1.18859 -5.26297 
2336 1 3.88489 -1.45582 -4.77986 
859 1 3.32518 -1.31031 -5.67525 
1830 1 6.22788 -1.18097 -5.38536 
148 1 5.1434 -0.838945 -4.87335 
2352 1 5.49786 -1.48832 -5.25942 
720 1 -6.95921 -1.94763 -5.71807 
2130 1 5.82505 -0.441126 -5.35808 
34 1 6.70977 -0.45076 -5.01836 
1841 1 -6.56167 0.844819 -5.81216 
1402 1 -6.57937 -0.166056 -6.03752 
1200 1 7.00179 0.885967 -5.23216 
499 1 -4.76263 0.880976 -6.00441 
493 1 -5.43052 0.177332 -4.87733 
385 1 -5.27904 -0.604426 -5.20524 
1551 1 -5.25554 -0.461183 -4.14076 
3543 2 -4.03829 -1.24276 -5.57642 
3256 2 -4.17465 -0.48073 -5.27646 
1928 1 -2.99547 -1.33193 -5.08831 
827 1 -2.62836 0.359803 -5.05431 
2077 1 -2.21498 -0.727252 -5.21763 
1268 1 -1.16428 -0.387633 -3.9846 
2796 2 -1.96146 0.569042 -5.99326 
1074 1 -0.959276 -0.61428 -5.51817 
1531 1 0.162348 -0.0869222 -5.57964 
75 1 -0.178242 0.895601 -5.269 
1777 1 1.0084 -0.444271 -5.65433 
1713 1 0.874059 0.512507 -5.74967 
1432 1 0.672777 0.0971156 -4.91097 
3449 2 2.09542 -0.428297 -5.1715 
1185 1 2.85896 0.80414 -5.1562 
886 1 3.07733 -0.167161 -5.40483 
3317 2 4.29954 -0.525858 -5.71577 
2848 2 4.0335 0.437372 -5.58324 
2068 1 5.19223 0.702559 -5.95372 
140 1 5.25741 0.194261 -5.24733 
1568 1 -7.05971 0.077041 -5.37477 
443 1 -5.66872 1.13489 -5.50861 
1151 1 -6.64141 1.65234 -5.67576 
408 1 -5.56898 1.34471 -4.5325 
3144 2 -4.21227 0.321635 -5.17232 
2861 2 -4.70127 0.899805 -4.75096 
2939 2 -2.1317 1.35917 -6.01149 
2846 2 -2.19211 2.01305 -5.62312 
1483 1 -3.01162 1.37525 -5.31924 
857 1 -3.40748 1.98766 -4.30423 
1880 1 -1.16656 0.293575 -5.38928 
1775 1 -1.47997 1.40946 -4.88888 
2489 1 -0.938383 1.32706 -5.39849 
867 1 -0.284154 1.83843 -4.96722 
171 1 1.28714 1.37601 -5.95878 
3383 2 1.79237 0.36682 -4.95958 
3443 2 1.56723 1.14712 -4.76885 
970 1 1.88285 1.95763 -5.76061 
1997 1 2.72226 1.51204 -5.71162 
175 1 1.95647 0.903085 -5.81511 
2575 1 2.56758 1.65353 -4.90755 
3364 2 3.90787 1.1381 -5.30033 
3388 2 3.68492 1.93137 -5.31948 
234 1 5.11195 1.23361 -5.26994 
2445 1 5.25491 1.07526 -6.85994 
941 1 6.02402 1.18909 -4.9415 
2327 1 5.35751 1.97228 -4.96004 
13 1 6.5428 1.90546 -4.96039 
1335 1 -5.35377 2.42227 -5.67687 
92 1 -6.1315 2.60771 -5.25315 
1224 1 -4.27361 2.03295 -6.15348 
2200 1 -5.40911 3.33358 -5.539 
3062 2 -4.29658 1.5636 -5.16628 
2061 1 -5.8533 2.47968 -4.44564 
2490 1 -3.32282 2.28045 -5.13728 
1833 1 -3.70988 2.55638 -5.78828 
1986 1 -3.59223 2.75154 -4.36012 
3117 2 -2.39855 2.77547 -5.33257 
2208 1 -1.14255 2.09711 -5.92938 
2647 1 -1.44771 3.17662 -4.71651 
1521 1 -0.967546 3.85573 -4.77333 
46 1 -0.591396 2.69668 -4.84347 
2708 1 0.3944 2.6529 -5.14127 
1375 1 0.984103 2.22431 -5.59602 
2271 1 1.60362 2.82663 -5.55912 
1614 1 2.68434 2.22986 -4.31315 
47 1 2.46436 2.58284 -5.22476 
324 1 2.69364 3.27132 -5.68086 
3433 2 3.55123 2.55023 -4.95864 
2894 2 3.57094 3.38443 -4.99448 
2092 1 4.63154 3.15246 -5.42502 
2584 1 4.79704 2.15805 -5.67732 
1466 1 4.6499 2.53016 -4.82096 
2690 1 -6.93978 2.35273 -5.17154 
3414 2 5.69487 2.73422 -5.68451 
1169 1 6.8239 2.92782 -5.17748 
412 1 -5.522 4.24137 -3.30954 
896 1 -5.82202 3.60783 -3.90549 
120 1 -5.86409 3.40174 -4.76219 
668 1 -4.71039 2.8916 -5.89552 
928 1 -5.64554 4.17773 -5.39455 
1669 1 -4.36733 3.69433 -5.73743 
2495 1 -3.80396 3.15075 -5.13238 
2687 1 -3.85059 4.43065 -5.07973 
1255 1 -3.69732 3.72547 -4.56316 
2945 2 -2.66331 3.48921 -5.43209 
2977 2 -2.70282 4.27493 -5.21415 
353 1 -1.60202 3.77324 -5.51543 
197 1 -0.736353 4.77017 -4.67437 
894 1 0.680286 3.43414 -5.23768 
2813 2 -0.483312 3.53139 -5.69184 
2176 1 0.541412 4.34504 -4.90426 
3378 2 -0.312268 4.18027 -5.60278 
586 1 1.18051 4.508 -5.3997 
1639 1 1.4827 3.78954 -5.43486 
23 1 1.85748 5.14488 -4.99983 
482 1 2.17468 4.11459 -4.99712 
614 1 2.91287 4.13928 -5.63777 
3013 2 3.48102 4.1432 -4.63137 
1644 1 2.24812 3.32315 -4.85835 
2172 1 4.52275 4.64805 -4.7229 
2414 1 4.55802 3.84289 -5.15219 
2814 2 3.25958 4.87236 -4.53031 
3298 2 5.6543 3.63328 -5.55508 
2917 2 5.52095 4.27144 -5.2403 
462 1 6.9833 3.98508 -5.03196 
2541 1 -6.69791 3.32977 -5.08412 
283 1 6.27922 4.31972 -4.39255 
3045 2 -6.54413 4.7509 -5.86952 
3147 2 -6.67357 5.49925 -5.60504 
2308 1 -6.03367 5.57807 -4.75826 
822 1 -5.58802 4.90198 -5.06082 
1543 1 -4.76036 4.52697 -5.58474 
1030 1 -3.85576 5.10671 -5.41571 
2466 1 -3.83484 4.92934 -4.46626 
2865 2 -2.76411 4.88553 -4.78295 
3458 2 -2.94466 5.74286 -4.68093 
2626 1 -1.4838 4.67487 -5.64165 
597 1 -1.49176 4.50819 -4.83889 
1702 1 0.271577 5.8369 -6.23159 
3392 2 -0.318133 4.92643 -5.58221 
3207 2 -0.615187 5.77155 -5.35811 
2080 1 0.184166 5.16457 -4.50604 
1709 1 0.433752 6.20818 -5.38529 
2038 1 0.89358 5.50472 -5.04725 
1141 1 1.565 5.95491 -4.85967 
825 1 2.49241 4.82274 -5.28625 
103 1 2.57412 5.83292 -5.17921 
1422 1 2.7113 6.19386 -6.15061 
1066 1 3.3561 5.73894 -5.61289 
908 1 3.7326 4.59 -5.66802 
2028 1 4.09149 5.19509 -5.19614 
2025 1 4.33086 5.82629 -4.6696 
2927 2 5.48483 5.02978 -5.03068 
2209 1 6.77109 5.07232 -4.54621 
1667 1 6.64238 5.63286 -5.46169 
2747 2 -6.96909 7.05519 -5.26886 
3330 2 -6.8073 6.33188 -5.53785 
2376 1 -4.94002 5.3204 -5.34524 
1004 1 -5.65244 6.47453 -5.93491 
2573 1 -5.79689 7.12733 -5.37393 
297 1 -5.8604 6.51961 -4.72067 
803 1 -5.03734 6.18077 -5.04395 
2275 1 -4.21517 5.63515 -4.81085 
715 1 -3.73228 6.11589 -5.40073 
1744 1 -2.27327 5.21628 -5.95141 
1394 1 -1.89319 6.35562 -5.29285 
658 1 -1.50947 -7.18032 -5.87105 
3455 2 -0.580802 -7.11971 -4.98682 
3018 2 -0.809669 6.56838 -5.16052 
897 1 -1.83791 6.76873 -4.61096 
1435 1 0.290595 6.97967 -4.22243 
1382 1 0.428258 -7.11931 -5.19924 
2899 2 1.48567 6.39209 -5.79581 
372 1 0.939083 6.59919 -4.72356 
686 1 2.38482 7.02687 -6.00824 
1689 1 2.41928 -6.42589 -5.64721 
1249 1 2.19561 6.54629 -4.68466 
295 1 2.81689 6.67186 -5.27811 
492 1 3.77762 7.0491 -5.0599 
2051 1 5.66767 7.15947 -5.5495 
1513 1 3.65575 6.23105 -5.15818 
3257 2 5.73936 5.72948 -4.81668 
2971 2 5.19686 6.29919 -4.87445 
244 1 6.5503 6.49143 -6.00774 
1399 1 -6.82576 6.71964 -4.22108 
1153 1 -6.44883 -6.51453 -2.78309 
1490 1 -5.00281 -6.40542 -4.63427 
3469 2 -5.33873 -7.20228 -3.61963 
1772 1 -4.25176 -6.98736 -4.31084 
2835 2 -3.3535 -6.29638 -4.24613 
138 1 -4.08416 -6.90215 -3.36014 
2332 1 -4.54222 -6.17019 -3.93944 
1506 1 -3.35151 7.0867 -3.36888 
2033 1 -2.70311 -6.75453 -3.28654 
356 1 -2.57899 -5.70663 -5.0743 
350 1 -2.19454 -5.97477 -3.7622 
180 1 -1.32942 -5.40833 -3.33866 
2453 1 -2.27715 -6.33915 -4.57073 
6 1 -1.27337 -6.29382 -3.66183 
1127 1 -0.466554 -5.93284 -3.59257 
3236 2 0.643223 -6.48249 -3.29203 
635 1 -0.0581499 -5.60559 -4.24849 
1945 1 -0.0460699 -6.46172 -4.22795 
1799 1 0.764561 -6.73029 -4.37511 
2298 1 0.889068 -5.9192 -4.27658 
2067 1 1.55804 -6.68129 -3.90682 
632 1 1.57171 -5.6838 -3.90053 
3303 2 2.9462 -6.50857 -4.10737 
2918 2 2.66226 -5.69204 -4.07467 
1358 1 3.88125 -6.26998 -4.20263 
2714 1 3.64347 -6.85057 -3.20059 
144 1 4.97242 -6.45241 -3.33434 
2695 1 5.73716 -5.72507 -3.61651 
2571 1 5.84581 -6.631 -3.7325 
2029 1 6.5844 -5.82115 -4.05581 
610 1 -6.92877 -6.92094 -3.84545 
2269 1 -6.60405 -5.14896 -4.02381 
1893 1 -6.33879 -6.28723 -4.02466 
582 1 -4.94597 -5.52548 -4.41736 
3228 2 -5.51127 -6.36817 -3.48534 
2318 1 -4.73087 -5.18337 -3.73687 
3413 2 -3.56344 -5.76725 -3.79 
3562 2 -3.68312 -4.99058 -3.9025 
104 1 -2.53344 -5.20615 -4.26025 
401 1 -3.39177 -5.27659 -2.59148 
322 1 -2.0186 -4.95065 -3.45939 
3480 2 -1.32412 -5.04106 -4.4809 
954 1 -0.836285 -4.08211 -3.55238 
1863 1 0.595534 -4.93189 -4.0185 
1431 1 -0.451312 -4.84642 -3.82899 
1069 1 1.43427 -3.96164 -4.19237 
1998 1 1.38094 -4.72677 -4.1692 
3379 2 2.60073 -5.13039 -3.58463 
1653 1 3.42574 -4.53545 -4.1382 
2075 1 3.65049 -5.39128 -3.89056 
2825 2 4.82246 -5.76734 -4.32213 
1878 1 5.22869 -4.61266 -3.44261 
1312 1 -7.14829 -6.10833 -3.61817 
2162 1 6.81906 -4.99647 -3.68881 
1000 1 5.97069 -5.30051 -4.7116 
1481 1 -5.65815 -3.82605 -4.17424 
1673 1 -6.24479 -4.39046 -4.45552 
1885 1 -5.38933 -4.71712 -4.13937 
2106 1 -6.31433 -3.3235 -4.26884 
2388 1 -4.70998 -3.42972 -4.51407 
2350 1 -4.752 -4.27805 -3.5201 
1609 1 -4.44266 -4.30863 -4.5021 
3536 2 -3.70862 -4.24309 -3.58889 
3376 2 -3.90479 -3.43649 -3.57916 
1143 1 -2.80136 -5.09977 -3.12817 
1470 1 -2.88753 -3.36359 -3.92662 
3285 2 -1.65596 -4.41429 -4.36187 
2916 2 -1.55277 -3.68238 -4.36169 
1251 1 -2.03195 -3.42472 -3.26254 
851 1 -0.374377 -3.88505 -4.21815 
2044 1 -0.072284 -3.33446 -3.66243 
1028 1 0.399868 -4.16396 -3.86566 
1611 1 1.46975 -3.57009 -4.98204 
858 1 1.25674 -2.76254 -4.42954 
1843 1 0.862849 -3.29578 -3.81493 
2306 1 2.04779 -3.2043 -4.54004 
3230 2 2.38183 -4.39524 -3.50587 
3015 2 2.12687 -3.6744 -3.24613 
2150 1 3.51403 -3.78543 -4.82776 
2712 1 3.28406 -3.73896 -3.78008 
3340 2 4.70364 -4.99966 -4.34023 
3244 2 4.51655 -4.07125 -4.21227 
2239 1 5.3751 -3.38413 -4.22482 
463 1 5.37668 -3.82838 -3.24139 
1807 1 4.92067 -2.38886 -3.08439 
1994 1 5.95149 -5.02602 -3.87217 
1493 1 5.67038 -4.37772 -4.51991 
2721 1 -6.80144 -4.23986 -3.69878 
1013 1 6.86398 -3.95231 -3.38245 
587 1 -7.09048 -3.28291 -3.91011 
874 1 -6.19819 -2.43898 -3.93489 
831 1 -7.13682 -2.39791 -3.74578 
2309 1 -5.3253 -2.86799 -4.06634 
1144 1 -5.417 -2.72751 -3.19873 
3083 2 -4.30026 -2.80283 -3.50613 
2496 1 -3.0239 -3.30886 -3.03558 
647 1 -3.10151 -2.31651 -3.78295 
1064 1 -0.742276 -2.98306 -4.38563 
3198 2 -1.83172 -2.98452 -4.23251 
2766 2 -2.1915 -2.3495 -4.02219 
1266 1 -0.932422 -3.05602 -3.54381 
2020 1 -0.279223 -2.48073 -3.82572 
922 1 2.11754 -2.39723 -4.34904 
984 1 0.959625 -2.05855 -4.06023 
879 1 2.88533 -1.2064 -2.80877 
535 1 2.81875 -2.97729 -3.77062 
169 1 2.69407 -1.75967 -4.00142 
2857 2 4.28183 -3.37249 -4.00334 
3353 2 4.09229 -2.61523 -3.80117 
2211 1 5.20075 -2.41588 -4.12416 
2365 1 5.49708 -2.93596 -3.56399 
844 1 6.35696 -3.02582 -3.31735 
335 1 6.00049 -3.93323 -3.71449 
1325 1 -7.13328 -1.55708 -4.08322 
1707 1 -6.15012 -1.62587 -3.73161 
572 1 -5.18828 -2.07941 -4.36203 
960 1 -5.47861 -1.41201 -4.09361 
808 1 -4.33403 -1.83601 -4.51284 
2674 1 -3.83926 -0.821118 -4.0322 
3229 2 -4.42287 -2.08762 -3.33114 
2638 1 -3.30107 -1.33448 -3.56384 
2748 2 -2.29267 -1.54683 -4.10377 
2789 2 -2.40957 -0.623809 -4.02782 
2542 1 -1.05172 -2.13101 -3.78232 
1484 1 -0.483263 -0.503944 -3.31694 
1971 1 -1.13537 -1.21726 -4.26862 
2057 1 -1.42533 -1.46595 -3.36677 
3585 2 0.207104 -1.29552 -4.59119 
2540 1 -0.366798 -1.31273 -3.63612 
2237 1 0.715443 -0.280129 -3.7525 
1969 1 0.93669 -1.16772 -3.82081 
236 1 2.93894 -1.22993 -4.59763 
247 1 1.72358 -1.62352 -4.19812 
2722 1 2.65618 -0.292508 -4.1269 
1337 1 3.49207 -0.641905 -4.88412 
3134 2 3.91498 -1.90089 -3.62586 
2914 2 3.70859 -1.11295 -3.64916 
1703 1 4.80256 -1.5413 -4.60036 
2856 2 6.1469 -1.45008 -4.19278 
1648 1 4.31029 -0.685388 -4.61002 
153 1 5.04345 -1.58006 -3.77434 
2054 1 6.60462 -1.25577 -3.20158 
3116 2 6.16888 -2.12073 -4.46459 
423 1 6.51028 -2.20199 -3.18078 
1882 1 6.78911 0.610837 -4.34894 
1575 1 -6.5809 -0.804817 -3.65162 
3186 2 -6.30146 0.408316 -4.61081 
319 1 -6.79928 0.70045 -3.46609 
1428 1 -5.80002 -0.658613 -3.50516 
1343 1 -4.41088 -0.133066 -3.96552 
2601 1 -3.435 0.883091 -4.74924 
111 1 -3.15555 -0.515276 -4.78744 
2302 1 -3.63748 -0.211145 -3.31673 
1316 1 -3.59506 0.236918 -4.25338 
3490 2 -2.6075 0.122684 -3.72273 
3588 2 -2.83632 0.885449 -3.61498 
2241 1 -1.51241 0.552842 -3.87179 
969 1 -1.84441 0.547437 -4.67131 
3500 2 -0.212958 -0.539132 -4.67573 
3555 2 -0.37233 0.248376 -4.25711 
2 1 0.197829 0.855985 -3.50516 
692 1 1.15856 -0.346091 -4.37312 
1296 1 0.465133 0.848642 -4.51352 
2013 1 1.94646 -0.760033 -4.05842 
1700 1 1.16039 0.552969 -3.79399 
506 1 1.98482 0.193287 -3.70324 
76 1 3.1329 0.319123 -4.60906 
2084 1 3.83687 0.0554121 -4.29323 
3483 2 3.56826 -0.379913 -3.45792 
455 1 4.67719 0.916598 -4.54731 
1548 1 4.80298 -0.722911 -3.89634 
2297 1 7.09571 -0.514627 -4.2769 
2902 2 5.86636 -0.808381 -4.16085 
2819 2 5.80333 0.0653967 -4.13462 
3263 2 -6.5885 1.2971 -4.55383 
3260 2 -6.9766 1.78789 -4.11527 
817 1 -6.57211 1.62941 -2.98414 
1622 1 6.95498 1.49792 -3.14753 
2423 1 -4.32016 0.578315 -3.76029 
1627 1 -5.37715 0.501559 -3.86492 
1607 1 -5.83743 1.88866 -5.11532 
2278 1 -5.69613 1.83454 -3.83481 
1793 1 -4.88159 1.36769 -3.7606 
882 1 -3.81694 1.22983 -4.10843 
1910 1 -2.40899 1.28225 -4.72224 
14 1 -1.8894 1.35516 -4.00686 
3196 2 -0.622784 1.78158 -3.80231 
1002 1 -1.64756 2.16255 -4.52161 
549 1 0.606283 1.70343 -3.95892 
2406 1 0.547546 1.34476 -5.2797 
2950 2 -0.664764 1.06285 -4.16704 
2328 1 0.378434 2.0724 -4.63258 
258 1 0.312399 1.49012 -3.11247 
130 1 1.29798 1.2912 -3.45277 
583 1 2.45071 0.770166 -4.03769 
254 1 3.01251 1.23696 -4.33086 
620 1 2.22989 1.50152 -3.58159 
296 1 4.76189 0.0425906 -4.26785 
3305 2 3.36486 0.416864 -3.30906 
1364 1 3.91711 1.08699 -4.10865 
556 1 3.51091 2.18319 -4.07729 
2637 1 4.53864 1.74341 -4.39807 
840 1 4.47103 0.644171 -3.60155 
3209 2 5.66104 0.987024 -3.88468 
3369 2 5.44317 1.69701 -3.72399 
698 1 6.49239 1.51601 -4.0935 
823 1 6.14779 0.283328 -5.02547 
1913 1 -6.2951 2.44927 -3.03669 
3033 2 -6.86414 2.57004 -4.01747 
2751 2 -6.96872 3.27826 -4.06411 
35 1 -5.66954 2.86357 -3.67505 
978 1 -4.98591 3.37509 -3.58025 
2529 1 -4.14157 2.01153 -3.82346 
1783 1 -4.02235 3.12083 -3.7128 
2311 1 -4.93215 2.41416 -3.71221 
2436 1 -2.86375 3.24272 -4.28544 
154 1 -2.61192 2.05432 -4.35954 
2563 1 -2.10109 3.30209 -3.5551 
1132 1 -2.07491 2.81673 -4.15201 
2860 2 -0.546859 2.66807 -3.87126 
1661 1 -0.999793 2.20555 -5.14086 
2030 1 -1.70343 2.38756 -3.55248 
2442 1 0.641648 2.31281 -3.4272 
3241 2 1.53856 1.90304 -4.59414 
3063 2 1.49635 2.56925 -4.26312 
1012 1 1.45363 2.10979 -3.35857 
414 1 2.52591 2.45437 -3.4718 
946 1 2.69256 3.06418 -4.29421 
613 1 3.31338 3.20977 -3.85748 
2707 1 4.37993 2.6365 -3.95616 