ITEM: TIMESTEP
30500
ITEM: NUMBER OF ATOMS
3594
ITEM: BOX BOUNDS pp pp pp
-7.2046738459321862e+00 7.2046738459321862e+00
-7.2046738459321862e+00 7.2046738459321862e+00
-7.2046738459321862e+00 7.2046738459321862e+00
ITEM: ATOMS id type x y z 
317 1 -6.36317 -6.88846 -6.39933 
1273 1 -5.26182 -6.01404 -6.83638 
3477 2 -4.78858 -7.06047 -5.91186 
833 1 -4.64299 -6.57022 -7.03352 
1490 1 -5.34015 -6.9004 -6.96515 
1733 1 -3.66483 6.97986 -6.5614 
2944 2 -2.4942 -6.60987 -6.23082 
3268 2 -2.68632 -7.16844 -6.7107 
579 1 -1.62679 -6.45353 -5.63058 
1905 1 -0.397599 -7.08471 -6.08946 
1836 1 -0.779207 -6.25116 -5.92075 
786 1 -1.14354 -7.02911 -6.29736 
2415 1 0.246649 -6.76549 -6.54589 
3537 2 -0.618884 -6.54232 7.15203 
290 1 1.21826 -6.61127 -6.68564 
546 1 2.65508 7.0791 6.97521 
2048 1 2.02416 -6.53285 -6.38884 
1088 1 2.54941 7.17165 -6.55289 
3442 2 3.50309 -6.86562 -6.12649 
1029 1 4.96721 -5.29853 7.03399 
3208 2 5.48211 -6.76537 -6.85921 
2256 1 4.59175 -6.18934 -6.03702 
2539 1 5.49777 -6.09156 -5.67754 
2787 2 6.05412 7.10211 7.19603 
1918 1 7.1791 -6.75602 -6.5427 
2573 1 6.06512 -6.75683 -5.22859 
639 1 6.42631 -6.92432 -6.04205 
1906 1 -5.84952 -6.16279 -6.28061 
3495 2 -6.5826 -5.59522 -7.19363 
977 1 -4.37792 -5.69783 -6.75536 
2706 1 -4.86207 -4.94292 -6.42881 
1184 1 -5.94281 -5.31702 -6.35296 
601 1 -3.95566 -6.518 -6.68435 
1654 1 -3.86623 -4.98733 -6.64774 
1477 1 -3.38238 -4.52223 7.15363 
3574 2 -2.90751 -5.97545 -6.48817 
2981 2 -2.97196 -5.26691 -6.15721 
2018 1 -1.62526 -5.83583 -6.53739 
3368 2 -0.503559 -5.7978 -6.96659 
2058 1 -1.82335 -4.85334 -5.92041 
3019 2 -0.558226 -5.01653 -6.67158 
2453 1 -2.12654 -5.68985 -5.50768 
386 1 -1.9448 -5.05363 -6.88098 
2537 1 0.337142 -5.87369 -6.42924 
1734 1 0.709651 -4.91818 -6.47421 
774 1 1.23927 -5.74669 -6.53843 
1234 1 1.95842 -5.37386 -6.44601 
1538 1 2.68716 -6.27185 -6.93112 
2631 1 2.62971 -4.97323 -6.78742 
2957 2 3.31218 -6.11017 -5.95886 
589 1 4.34035 -5.47545 -6.71178 
701 1 3.66394 -4.94374 -7.06167 
2357 1 4.65909 -4.4353 7.08423 
2812 2 5.63376 -6.07299 -6.81057 
3212 2 5.52852 -5.19203 -6.54107 
1373 1 6.60118 -6.26521 -6.49857 
1345 1 -6.88479 -5.20927 -5.99682 
695 1 -6.85426 -6.02462 -6.16479 
1527 1 6.54991 -5.09573 -6.02704 
2727 1 -5.93486 -3.69313 -6.27244 
2975 2 -7.04272 -4.22541 -6.90328 
1949 1 -6.02755 -4.03104 7.03529 
2353 1 -6.05785 -2.66287 -6.44024 
2122 1 -5.45825 -4.34856 -6.66653 
1361 1 -4.976 -3.75584 -6.20056 
843 1 -4.26424 -4.24418 -6.37544 
2480 1 -3.84264 -3.6863 -6.93424 
2262 1 -2.55261 -4.38613 -7.04101 
890 1 -3.02014 -3.51411 -6.98332 
1470 1 -2.03272 -3.62866 -7.06151 
228 1 -2.23975 -3.97762 -6.19241 
3484 2 -0.990816 -4.32303 -6.54793 
2808 2 -1.03809 -3.54019 -6.42221 
2599 1 0.418627 -4.19566 -6.10799 
2520 1 1.24907 -3.67702 -6.06495 
1897 1 1.42652 -4.6567 -6.17727 
308 1 1.64344 -3.14085 -5.16635 
19 1 2.18823 -4.18393 -6.50614 
329 1 3.26445 -4.07331 -6.88083 
1051 1 4.13597 -4.05919 -6.70843 
2150 1 4.08355 -3.8243 -5.8177 
1876 1 4.05488 -3.2196 -6.94621 
3266 2 5.25954 -4.34089 -6.43523 
2767 2 4.99005 -3.64263 -6.27163 
1981 1 4.69592 -3.6114 6.90316 
1263 1 6.87442 -5.42076 -6.70792 
1372 1 6.30857 -4.25587 -6.579 
2106 1 -6.00713 -3.22918 -7.09465 
3126 2 -7.15525 -3.36154 -6.78253 
41 1 -5.12586 -1.69596 -6.20818 
2612 1 -5.21128 -2.77727 -6.2124 
1434 1 -4.36354 -3.23664 -6.42169 
1450 1 -4.49232 -2.19605 -6.40915 
2114 1 -3.87956 -2.60225 -7.05085 
2549 1 -1.79826 -2.86158 7.04711 
2516 1 -3.23582 -2.22848 -6.71137 
871 1 -2.47589 -3.00658 -6.45807 
1738 1 -2.29809 -2.29711 -7.06621 
3332 2 -1.17503 -2.71322 -6.5594 
3234 2 -1.4357 -2.06495 -6.21143 
2718 1 -0.119828 -3.71016 -5.72692 
2057 1 -0.0564388 -2.44389 -6.74171 
1210 1 0.0802337 -3.33099 -6.90823 
1313 1 1.29189 -2.58222 -5.96007 
3347 2 1.11138 -2.63481 -7.03699 
2804 2 0.757431 -1.8445 -6.97725 
1859 1 2.06731 -3.08879 -6.12552 
483 1 2.27064 -2.26609 -6.58564 
628 1 2.27099 -3.11491 -6.90029 
985 1 2.95814 -2.44887 -6.51895 
296 1 3.14878 -3.27271 -6.58003 
309 1 4.46344 -2.46136 7.12045 
1085 1 3.80034 -2.35061 -6.78284 
3550 2 4.93505 -2.77383 -6.1979 
1362 1 5.2292 -2.80502 -7.1299 
1472 1 6.06589 -3.08457 -6.29594 
3087 2 7.02722 -2.54088 -6.64014 
2211 1 5.89155 -3.54199 -7.13532 
2072 1 -6.52188 -1.57224 7.1521 
2535 1 -6.10225 -1.8914 -6.66947 
1445 1 -5.94034 -1.28552 -6.061 
351 1 -4.24811 -0.97555 -6.97391 
2892 2 -5.23095 -2.20963 7.03559 
3360 2 -5.3029 -1.35513 7.0927 
1800 1 -2.74577 -1.54279 -6.4168 
743 1 -4.11259 -1.76623 -7.06481 
667 1 -3.46823 -1.16497 -6.74824 
1722 1 -2.91382 -0.644251 -6.30224 
3105 2 -1.69442 -1.31099 -6.07379 
607 1 -0.590556 -1.80671 7.08506 
321 1 -1.0111 -0.994501 -7.14069 
2013 1 -0.522866 -1.51661 -6.4615 
3151 2 0.474379 -1.28518 -6.59378 
1837 1 1.5517 -1.80279 -6.2497 
859 1 1.26315 -0.825428 -5.84396 
823 1 2.1996 -1.1007 -6.36122 
76 1 2.86972 -1.46246 -6.23061 
1524 1 3.63656 -1.48923 -6.73375 
478 1 5.14969 -1.81357 -7.0452 
2972 2 4.6462 -2.04884 -6.09999 
2721 1 5.93529 -1.65038 6.81785 
2510 1 5.8942 -2.12916 -6.59994 
1698 1 4.58944 -1.01569 -6.95323 
2840 2 6.88897 -1.75075 -6.82533 
2797 2 6.83976 -1.0791 -6.74931 
547 1 -6.48954 -0.815043 -6.61169 
385 1 -6.89376 0.103626 -6.81892 
625 1 -6.41618 0.112159 -6.18265 
1457 1 -4.5823 0.187859 -6.44547 
3097 2 -5.51292 -0.575327 -7.14998 
3127 2 -5.70684 0.34261 -6.9239 
83 1 -3.87451 0.727922 -6.25218 
2543 1 -3.81168 -0.165341 -6.73801 
1233 1 -4.52617 -0.183601 6.97611 
1370 1 -3.05127 1.30447 -6.05163 
2505 1 -2.79965 0.682018 -6.50286 
3200 2 -1.76483 -0.442302 -6.18979 
2796 2 -1.87716 0.323133 -6.0381 
994 1 -0.791689 -0.465932 -6.62414 
3088 2 0.428235 -0.611467 -6.62568 
3311 2 0.281396 0.107643 -6.63833 
1978 1 1.51586 0.610149 -6.41165 
2708 1 1.26341 -0.066958 -6.04575 
1057 1 2.25419 -0.264872 -6.25498 
2730 1 2.40484 0.553868 -6.03274 
785 1 3.11845 0.143299 -6.31529 
312 1 3.17998 -0.631334 -6.34752 
970 1 3.68876 0.489537 -6.65059 
1185 1 4.49259 0.489498 -6.77653 
50 1 5.12696 -0.343122 -6.82772 
148 1 5.47599 -1.10386 -6.43076 
140 1 5.28751 -0.0502106 -6.10158 
3135 2 6.64181 -0.413085 -6.34579 
3038 2 6.33568 0.312133 -6.16741 
3007 2 -5.81702 1.13651 -6.90325 
2151 1 -6.97559 0.841003 -6.27765 
668 1 -4.40267 1.98321 -6.0552 
1224 1 -4.84958 1.27161 -6.2086 
1476 1 -4.90976 1.64718 -7.07719 
2010 1 -4.59757 0.771738 -7.12294 
3148 2 -3.8268 1.43357 -6.9986 
2466 1 -3.6747 1.54231 -5.64418 
343 1 -2.40379 1.3513 -6.83702 
2523 1 -1.48801 1.15139 -6.88503 
1993 1 -0.734776 1.20198 -5.51679 
2508 1 -0.802614 1.38383 -6.36383 
323 1 -0.97978 0.38354 -7.12678 
2928 2 0.333169 0.871175 -6.54611 
3078 2 0.35934 1.64847 -6.36472 
175 1 1.34165 1.25531 -7.00774 
693 1 1.36745 2.1085 -6.31232 
851 1 1.7959 1.3369 -5.86058 
2463 1 0.923807 2.4567 -7.13678 
3459 2 2.4703 1.16392 -6.95091 
3393 2 2.32184 1.97903 -6.9 
1176 1 2.72347 2.15872 -5.77454 
925 1 2.86683 1.20462 -5.80135 
1113 1 3.48439 1.29434 -6.52132 
2276 1 4.39594 1.48452 -6.39876 
1883 1 4.66059 2.31329 -6.42316 
2183 1 5.47451 0.56076 -6.94078 
2061 1 7.01685 1.66623 -6.90554 
3060 2 6.19758 1.09448 -6.03277 
2597 1 -6.76724 0.86204 6.9435 
3140 2 -6.1645 1.89126 -6.52477 
3465 2 -6.23674 2.67159 -6.18217 
1335 1 -4.95238 2.37404 -6.55141 
1318 1 -5.39469 2.82723 -7.09327 
3093 2 -3.87572 2.14584 -6.99259 
2783 2 -3.92967 2.96528 -6.89548 
1232 1 -3.9418 2.51891 -5.76524 
2601 1 -3.21233 2.37564 -6.20938 
883 1 -2.68506 2.16203 -6.85835 
803 1 -3.24098 3.24189 -5.99193 
2522 1 -1.55044 2.01201 -6.56838 
2603 1 -0.830216 3.18542 -7.08633 
1933 1 -0.800279 2.25016 -6.91242 
3444 2 -0.0849878 2.19854 -5.98557 
1396 1 0.751636 3.28896 -6.92121 
2813 2 -0.111407 2.96903 -5.96517 
1368 1 1.03384 2.80534 -6.22861 
3478 2 1.91367 3.44804 -6.38001 
3417 2 2.13845 2.77763 -6.63929 
1923 1 2.98159 2.86389 -5.96977 
2093 1 3.15834 3.03409 -6.94834 
899 1 3.9272 2.67588 -6.42865 
2092 1 3.41512 2.04945 -6.37531 
795 1 4.59061 3.22019 -5.25858 
284 1 5.27512 1.52068 -6.9613 
865 1 5.28029 2.67024 -6.69202 
2530 1 6.03877 3.39531 -6.55537 
404 1 5.94398 2.19954 -7.18584 
122 1 6.63857 2.48836 -6.52605 
1229 1 7.18547 1.84609 -6.12592 
131 1 7.09491 2.88082 -5.74255 
2736 2 -6.23418 3.40059 -6.25313 
3238 2 -6.53089 4.22163 -6.07236 
141 1 -6.023 3.68979 7.15701 
35 1 -5.17509 3.2457 -6.45928 
491 1 -5.3318 4.14545 -6.26554 
3408 2 -4.10759 3.68527 -6.70324 
3411 2 -4.30832 4.43904 -6.50557 
1745 1 -2.7143 3.19819 -6.67936 
1619 1 -2.08719 2.69249 -6.38987 
448 1 -2.83153 3.96654 -6.38914 
597 1 -1.93295 3.55347 -6.16423 
287 1 -1.2566 2.98776 -6.37078 
1517 1 -1.04666 4.03413 -6.43518 
912 1 -0.880703 4.19996 6.91093 
792 1 -0.130707 3.79898 -6.97992 
225 1 0.448396 4.55619 -6.03169 
2271 1 0.794541 4.16407 -6.9721 
1877 1 0.714517 3.69564 -5.98069 
3466 2 1.59804 4.15775 -6.26246 
3138 2 1.78253 4.94154 -6.32838 
324 1 1.12031 4.63328 6.64909 
1261 1 3.11691 3.82332 -6.54241 
1848 1 2.60241 3.88123 -5.7558 
1338 1 3.78147 3.43277 -6.00638 
3223 2 4.24592 3.87093 -6.9866 
3551 2 4.20992 3.18938 6.95613 
16 1 5.37013 4.05935 -6.47929 
862 1 4.8271 3.27672 -6.26867 
339 1 6.97954 4.30607 -6.60065 
805 1 6.8826 3.39563 -6.56043 
213 1 6.09121 4.26288 -6.35952 
522 1 -5.57223 5.47876 -6.71475 
3045 2 -6.63208 5.09322 -5.93586 
1662 1 -6.27894 4.98267 -7.10718 
1413 1 -5.73031 4.42845 -6.96228 
3471 2 -4.36474 5.10255 -6.6887 
297 1 -5.45735 5.24095 -5.84394 
945 1 -3.24661 4.69842 -7.14341 
2839 2 -2.12168 4.81029 -7.11283 
2832 2 -2.39745 5.54904 -7.0807 
2270 1 -2.29494 4.47475 -6.12079 
197 1 -1.34048 4.98975 -6.33335 
741 1 -1.12025 5.93662 -6.50896 
2635 1 -0.75558 4.77532 -6.87023 
1435 1 -0.299355 5.57365 -6.50841 
2446 1 0.0370279 4.7008 -6.65685 
2304 1 0.94387 5.14057 -6.9707 
2831 2 1.67082 5.60045 -5.90566 
1346 1 1.83207 5.35542 7.17148 
1247 1 2.76699 4.57465 -6.55887 
2212 1 2.84609 5.78765 -6.01563 
3215 2 4.11354 4.53336 -6.7205 
2790 2 3.7474 5.34538 -6.59898 
1068 1 4.15487 5.33673 -5.59623 
2305 1 5.54799 5.10686 -6.41184 
1584 1 6.27788 5.53545 -6.31779 
82 1 4.93151 5.62203 -6.31793 
2142 1 -7.14871 5.39928 -7.14705 
2703 1 6.8487 5.02644 -6.46243 
1004 1 -5.77399 6.14997 -6.12376 
2582 1 -5.89753 6.78642 -6.70804 
1410 1 -6.3906 5.87649 -6.98114 
3150 2 -4.70818 6.64361 -6.29517 
101 1 -3.39373 6.12431 -5.99114 
3463 2 -4.54803 5.85216 -6.39824 
2309 1 -3.80386 6.37325 -7.19947 
345 1 -2.58488 5.27172 -5.9086 
3454 2 -2.46091 6.45086 -6.78357 
1506 1 -2.63177 6.35696 -5.59735 
1881 1 -1.81317 5.83996 -5.98396 
104 1 -1.32055 6.6352 -6.70009 
1567 1 -1.79918 6.92388 -5.9327 
1634 1 0.513593 6.73831 -6.58589 
1521 1 -0.382847 6.50147 -6.30525 
1639 1 0.69064 5.92484 -6.72762 
2492 1 1.66742 7.09749 -6.85838 
2899 2 1.41871 6.3866 -5.98851 
1016 1 2.38392 6.33297 -6.79458 
2431 1 2.93157 6.17075 6.9146 
96 1 2.41376 6.5001 -5.81333 
3587 2 3.57977 6.78134 -6.36366 
3569 2 3.68911 6.07467 -6.67201 
2574 1 5.46721 7.15565 -5.87713 
2088 1 4.642 6.59086 -6.72591 
1530 1 5.76241 6.24214 -6.01702 
932 1 4.52926 -6.90107 -6.5428 
1727 1 6.83588 6.06566 -6.74586 
1291 1 -6.66601 6.59018 -6.70949 
66 1 6.69237 6.84969 -6.34898 
1616 1 -5.92252 -6.54575 -5.16116 
587 1 -6.39605 -6.06977 -4.4474 
2248 1 -5.26519 -6.91862 -4.73563 
3520 2 -4.96308 -6.29015 -5.76414 
1144 1 -5.27896 -5.92902 -4.50225 
1609 1 -4.4004 -6.29888 -4.64094 
278 1 -4.04618 -6.96653 -5.04551 
2176 1 -4.0852 -5.66441 -6.0114 
1585 1 -2.27639 -6.03748 -4.65941 
1643 1 -2.94553 -6.26863 -5.2151 
1640 1 -3.80311 -6.53958 -5.73963 
3594 2 -0.947342 -6.86467 -4.98578 
3322 2 -1.08203 -6.15032 -4.58981 
1333 1 -0.0838387 -6.20845 -5.56936 
2632 1 0.0994004 -5.97181 -4.43384 
3128 2 0.921659 -6.58957 -5.60777 
1998 1 1.16384 -7.18074 -4.51844 
2379 1 2.46317 -6.81955 -5.51862 
709 1 4.55991 -7.11664 -5.61824 
168 1 4.12836 -6.35084 -5.14953 
1416 1 3.16785 -6.39799 -4.95117 
3290 2 4.9511 7.16713 -4.74028 
3487 2 7.15562 -6.46255 -5.20788 
779 1 6.34321 6.70905 -5.26171 
1312 1 6.00649 -5.90533 -4.64836 
2747 2 -7.04665 -7.16687 -5.30274 
2206 1 6.36935 7.10679 -4.48198 
472 1 -6.22919 -5.69788 -5.48867 
52 1 -6.23901 -4.49905 -6.25724 
3416 2 -5.09065 -5.54765 -5.46845 
3325 2 -5.32692 -4.87933 -5.49325 
1406 1 -4.17584 -4.80564 -5.57468 
1086 1 -4.41599 -5.35161 -4.6879 
1140 1 -4.60879 -4.48709 -4.52433 
520 1 -3.61768 -4.65204 -4.95158 
572 1 -4.3165 -3.89156 -5.39916 
897 1 -2.88038 -5.28024 -5.03816 
959 1 -3.68725 -5.76135 -5.18679 
1979 1 -2.57976 -4.34328 -4.51128 
3480 2 -1.2757 -5.42372 -4.60626 
2368 1 -0.219677 -5.39375 -5.28935 
245 1 -1.12627 -5.45711 -5.78978 
1552 1 -0.334968 -4.69298 -4.72794 
2826 2 1.02183 -5.73804 -5.4902 
3068 2 0.918473 -5.03907 -5.24461 
1945 1 1.95788 -6.13101 -4.93196 
26 1 1.93513 -5.02052 -4.74755 
2933 2 3.22598 -5.36451 -6.07741 
984 1 3.1329 -5.02017 -4.73313 
2623 1 2.13024 -5.92435 -5.77079 
1385 1 2.63323 -5.60514 -5.04747 
190 1 3.90803 -5.03924 -5.0691 
1034 1 4.36733 -4.78086 -5.9791 
1415 1 5.04884 -5.33842 -5.4979 
2009 1 4.25343 -5.64137 -5.54002 
452 1 5.15157 -4.46287 -5.12123 
144 1 5.9511 -5.33697 -5.35574 
1320 1 5.96765 -5.29673 -3.98731 
2015 1 6.40702 -5.95156 -5.8189 
2828 2 7.03294 -5.67825 -5.00665 
3010 2 7.06768 -4.95654 -4.74809 
392 1 -6.35634 -4.75212 -5.04269 
318 1 -6.61291 -4.07739 -5.45181 
2912 2 -5.34551 -4.1558 -5.19016 
2737 2 -5.62805 -3.43773 -5.20444 
262 1 -3.43928 -3.12871 -4.62928 
874 1 -4.57448 -3.02365 -5.49644 
1629 1 -2.11584 -4.51735 -5.27344 
3061 2 -3.0936 -4.5296 -6.00702 
2083 1 -2.31394 -3.55363 -5.08541 
3041 2 -3.20143 -3.62388 -5.89318 
477 1 -3.3555 -3.88381 -4.78391 
484 1 -1.46503 -3.80797 -5.42255 
2289 1 -0.739519 -4.50254 -5.42844 
1689 1 0.112653 -4.95476 -5.9628 
393 1 -0.549662 -2.94585 -4.45346 
1582 1 -0.555142 -3.65459 -4.88746 
502 1 1.87186 -4.21464 -5.46596 
3227 2 0.704508 -3.38496 -4.84582 
2768 2 0.680986 -4.24609 -5.00031 
1611 1 2.22196 -4.97655 -5.58263 
3249 2 3.20966 -4.5455 -5.84674 
3014 2 2.99002 -3.80304 -5.6191 
847 1 4.35412 -4.3429 -5.14604 
40 1 4.11786 -2.98776 -5.20256 
72 1 5.56096 -4.03064 -4.55714 
2617 1 5.70182 -3.35116 -5.10116 
1493 1 5.79953 -4.94852 -4.66314 
1006 1 6.91459 -4.26064 -5.82242 
85 1 6.06456 -4.38981 -5.45465 
3080 2 6.93708 -4.19814 -4.56309 
1151 1 -6.62035 -3.36703 -5.82406 
1078 1 -6.80741 -2.72934 -4.85309 
1369 1 -6.83314 -2.36812 -5.64021 
2126 1 -6.72663 -1.96202 -4.22194 
2890 2 -5.75002 -2.65101 -5.15985 
2974 2 -5.79755 -1.8978 -5.29582 
2699 1 -4.70237 -2.19424 -5.49797 
1392 1 -3.40322 -1.91466 -4.44247 
2869 2 -3.36998 -2.86072 -5.66107 
2844 2 -3.71569 -2.05168 -5.69978 
1446 1 -3.90153 -2.52057 -4.69619 
594 1 -1.90734 -2.96642 -5.6813 
1953 1 -2.81498 -1.70999 -4.92929 
1087 1 -2.46151 -2.71094 -5.09559 
1474 1 -1.25146 -2.81715 -5.04123 
460 1 -1.80348 -2.24483 -5.17393 
2439 1 -0.88842 -2.02089 -4.54272 
250 1 0.635168 -3.11165 -6.02949 
658 1 -0.564418 -2.95737 -5.58313 
3430 2 0.394403 -2.56061 -4.91726 
27 1 2.62916 -3.50814 -4.33226 
2298 1 1.37223 -2.15748 -4.97985 
2830 2 2.75426 -3.18925 -5.31712 
1695 1 3.75416 -2.87397 -6.01628 
1648 1 4.03596 -2.21138 -4.87606 
1237 1 3.06645 -2.53173 -4.55162 
388 1 4.73237 -3.53 -4.93716 
734 1 5.68737 -2.57491 -5.21896 
2360 1 6.23543 -3.62227 -5.79254 
802 1 7.04866 -3.37675 -5.58902 
1207 1 6.68682 -2.38042 -5.66095 
90 1 -6.80486 -1.4607 -5.92782 
2993 2 -5.95835 -1.28617 -4.84927 
1001 1 -4.83481 -0.917865 -6.31282 
521 1 -4.91649 -1.25305 -5.31279 
2578 1 -5.75117 -0.496332 -5.97086 
3543 2 -3.9348 -1.43786 -5.77897 
900 1 -2.68434 -1.58178 -5.66803 
1380 1 -2.49551 -2.25971 -5.88251 
1928 1 -3.13514 -0.933424 -4.72817 
2589 1 -2.0828 -1.03054 -5.25168 
1484 1 -0.54665 -0.856867 -5.70513 
632 1 -0.659284 -1.91235 -5.36081 
3354 2 0.178504 -1.79043 -4.61518 
527 1 0.068143 -2.41658 -5.94916 
858 1 0.120679 -1.51181 -5.64931 
3585 2 -0.109198 -0.991444 -4.50441 
2105 1 0.945703 -1.83849 -5.62096 
1777 1 0.481676 -0.707047 -5.50122 
922 1 0.904579 -1.16842 -4.9635 
3356 2 2.53605 -2.3932 -5.40379 
3557 2 2.23727 -1.68314 -5.27822 
110 1 3.35799 -1.19986 -5.45685 
2995 2 4.42542 -1.30633 -5.91986 
656 1 3.59416 -2.07456 -5.64411 
1322 1 4.36823 -1.31004 -4.80849 
2500 1 4.85933 -2.34769 -5.06674 
346 1 5.95517 -1.75102 -5.82289 
1354 1 -7.02514 -1.85827 -5.08507 
1331 1 6.65094 -1.52863 -5.6002 
2641 1 -6.18185 0.717493 -5.65737 
1483 1 -6.8999 -0.676326 -5.64467 
3267 2 -6.19413 -0.502549 -4.89182 
3186 2 -6.4677 0.290063 -4.65043 
1927 1 -7.08005 0.234141 -5.68932 
2037 1 -5.26769 0.173616 -5.80382 
2605 1 -5.0413 -0.267934 -5.06701 
3256 2 -4.03 -0.644944 -5.59523 
3144 2 -3.99525 0.160117 -5.25468 
2560 1 -3.24146 0.151367 -6.28976 
2465 1 -3.17698 0.17553 -4.66269 
395 1 -3.5165 1.0419 -4.3402 
2108 1 -2.78267 -0.615125 -5.62396 
731 1 -2.48125 -0.0364789 -5.05818 
640 1 -1.12426 -0.413531 -5.16526 
400 1 -0.0860866 -0.100631 -5.67468 
3500 2 -0.169213 -0.234802 -4.5103 
75 1 0.719005 0.311826 -5.4587 
1432 1 0.946966 -0.159069 -4.80132 
3449 2 2.02552 -0.894168 -5.09546 
3383 2 1.95525 -0.0125861 -5.12495 
840 1 2.91191 -0.48128 -5.52183 
3317 2 4.23579 -0.537204 -5.83544 
1830 1 3.70235 -0.766382 -4.83123 
2848 2 3.97333 0.288535 -5.59679 
194 1 5.57478 -0.899195 -5.51705 
2021 1 4.85066 -0.386459 -4.89944 
34 1 6.41289 -0.817307 -5.30795 
670 1 6.76579 -0.0592753 -5.10555 
462 1 5.89589 0.0914507 -5.25637 
2681 1 -5.55731 1.6921 -4.79038 
1607 1 7.16957 0.9883 -5.35651 
928 1 -5.55467 1.29445 -5.69812 
1793 1 -5.39108 0.72558 -4.82435 
829 1 -5.89813 2.34756 -5.17708 
2861 2 -4.45871 0.846309 -5.20525 
3062 2 -4.42044 1.74654 -4.95076 
1238 1 -3.01042 0.481521 -5.48269 
2939 2 -1.96168 1.18726 -5.79009 
1894 1 -3.0913 1.3402 -4.90949 
2846 2 -2.32959 1.91134 -5.68609 
330 1 -2.33423 1.81307 -4.53747 
2395 1 -2.27846 0.890874 -4.82476 
1265 1 -0.734384 0.402149 -6.29827 
1543 1 -1.41318 1.24595 -4.65896 
1812 1 -1.61284 0.137137 -4.7516 
154 1 -1.01189 0.33705 -5.35875 
1195 1 -1.04562 1.89666 -5.00804 
2542 1 0.0227597 0.803203 -5.43166 
867 1 0.944777 1.15505 -5.58845 
3443 2 1.78663 0.786895 -4.89518 
3241 2 1.45529 1.61772 -4.64464 
84 1 1.96226 2.37557 -5.60179 
414 1 2.88153 0.458239 -5.34799 
1618 1 2.70558 1.69175 -4.9919 
3364 2 3.91803 1.16537 -5.47039 
2380 1 5.11598 0.912681 -6.04008 
817 1 5.03593 0.418854 -5.27654 
377 1 4.89382 1.70997 -5.43758 
806 1 6.41062 1.54943 -4.59282 
2584 1 6.44887 0.669108 -4.81587 
499 1 5.63151 1.08244 -5.09297 
2383 1 -6.52549 1.51133 -5.54898 
2297 1 -6.69248 3.29972 -5.22165 
408 1 -5.36472 2.12555 -5.68086 
1367 1 -3.37106 2.32472 -5.16133 
561 1 -3.79884 3.3234 -5.37257 
2436 1 -3.40365 1.93861 -4.41466 
2845 2 -4.72304 2.39686 -4.67599 
1725 1 -4.90303 2.87308 -5.7614 
3117 2 -2.27243 2.88436 -5.41365 
2945 2 -2.56301 3.4848 -5.18037 
1623 1 -1.10236 2.26239 -5.7546 
2326 1 -1.64729 2.39668 -4.71103 
159 1 -1.2744 3.15569 -5.53262 
2208 1 0.980124 2.12353 -5.45523 
1661 1 -0.287816 2.34638 -4.94841 
620 1 0.417455 2.64786 -4.4145 
2673 1 0.572583 2.72477 -5.16455 
1889 1 1.83003 4.09585 -4.99596 
2285 1 1.36937 2.94498 -5.44997 
673 1 2.23239 3.35109 -5.18094 
295 1 2.48431 2.59144 -4.96203 
3388 2 3.81621 1.98963 -5.26725 
3433 2 3.56984 2.68367 -4.94024 
1066 1 4.64507 2.57578 -5.6589 
2147 1 5.65076 2.04889 -4.79304 
1515 1 4.69957 3.83205 -4.60157 
3298 2 5.84248 2.40909 -5.73491 
3414 2 5.83472 1.74746 -5.98536 
115 1 -6.79039 2.30401 -5.36246 
2317 1 6.822 1.7351 -5.31251 
1169 1 -6.08785 4.09308 -4.80722 
1965 1 7.13399 4.89869 -5.03001 
29 1 -6.08692 2.94939 -4.63587 
822 1 -5.61684 3.54215 -5.3675 
443 1 -5.89358 4.60119 -5.30064 
2275 1 -3.65817 4.22236 -5.63166 
1772 1 -4.53389 3.81813 -5.60353 
2490 1 -3.50339 3.37988 -4.54982 
1691 1 -3.97433 4.80205 -5.37396 
2977 2 -2.74604 4.20847 -5.08441 
1308 1 -1.5284 4.23083 -5.74642 
3378 2 -0.226578 3.65028 -5.69742 
1763 1 0.142191 3.6017 -4.70451 
3392 2 -0.481971 4.39481 -5.57487 
1505 1 -0.224283 4.02356 -4.13059 
2598 1 0.91887 3.66019 -5.15287 
1817 1 1.04909 4.50996 -5.31944 
614 1 2.45683 4.69845 -5.37089 
2814 2 3.08865 4.48644 -4.62098 
2669 1 3.14567 5.2425 -5.55834 
946 1 2.455 3.47738 -4.24401 
244 1 3.46503 4.43047 -5.94853 
2894 2 3.37524 3.60099 -4.93626 
839 1 4.6975 3.97419 -5.57011 
2917 2 5.73432 3.30869 -5.58079 
2927 2 5.76593 4.01084 -5.29348 
1667 1 6.75213 3.9742 -5.76784 
81 1 -7.06967 4.09741 -4.95874 
2707 1 6.6463 3.34672 -4.83981 
1939 1 -6.59239 5.02829 -4.65032 
2200 1 -5.93329 5.475 -5.06906 
59 1 -4.87022 4.67897 -5.33358 
1481 1 -4.83462 5.7835 -5.41898 
1652 1 -3.46388 5.77697 -6.78693 
2563 1 -3.27655 4.95346 -6.29023 
223 1 -4.08367 5.55975 -5.47247 
2033 1 -4.24612 6.12215 -4.7904 
1012 1 -1.85591 5.58714 -5.03001 
2865 2 -2.83882 4.94825 -4.94156 
3458 2 -3.06599 5.7213 -4.84132 
1665 1 -1.71432 4.94953 -5.55889 
1089 1 -1.58069 6.21563 -4.26585 
3207 2 -0.586922 5.21627 -5.33924 
3018 2 -0.834384 6.02415 -5.40436 
2630 1 0.509696 5.3538 -6.07966 
341 1 -0.326807 5.05968 -4.39713 
486 1 0.375148 4.42483 -4.8285 
1838 1 1.10825 5.70835 -4.91589 
492 1 2.32843 5.50649 -5.00092 
224 1 2.04935 6.58979 -5.01985 
1677 1 1.70794 4.99951 -4.9311 
916 1 4.81838 4.625 -6.02374 
1382 1 4.70091 4.60489 -4.62903 
189 1 4.33803 5.43249 -4.78504 
2113 1 4.21182 4.6353 -5.30695 
3257 2 5.5556 4.91161 -5.27461 
112 1 6.53885 5.83852 -5.37861 
302 1 6.58946 4.9313 -5.62924 
233 1 -5.78224 6.99913 -5.79069 
3147 2 -6.80283 5.87106 -5.7738 
1872 1 -6.01505 6.94152 -4.84713 
2045 1 -5.6492 6.33359 -5.31137 
2318 1 -4.93348 6.57644 -5.14629 
1235 1 -3.91697 6.60803 -5.43076 
754 1 -4.39376 6.96894 -4.32967 
246 1 -3.1735 7.03916 -5.70572 
2002 1 -2.40732 -6.95215 -5.3033 
2988 2 -3.17093 6.50919 -4.52143 
582 1 -2.01676 -6.82746 -4.55574 
1499 1 -1.96292 6.62236 -5.03336 
3455 2 -0.962729 6.71346 -5.15631 
2392 1 0.543421 5.20802 -5.30895 
2096 1 0.320293 6.14838 -5.58505 
2080 1 0.239857 6.56436 -4.86444 
2524 1 0.103222 7.11653 -5.46636 
2429 1 1.08716 6.4931 -4.8 
2978 2 1.32609 7.12376 -5.77508 
849 1 1.97838 -6.92789 -4.82362 
799 1 3.26834 6.18975 -5.48807 
811 1 3.001 7.00806 -5.1823 
696 1 4.14692 6.19239 -5.41918 
2315 1 3.89848 7.04597 -5.1076 
924 1 4.74629 6.37934 -5.98906 
2926 2 5.33298 6.36932 -4.80646 
2971 2 5.42083 5.63453 -5.21587 
3330 2 -6.91475 6.60873 -5.6454 
610 1 6.44098 6.22901 -4.53033 
2191 1 -6.47908 -6.94275 -4.33941 
2473 1 -7.06498 -5.97242 -3.8097 
929 1 -6.60198 -7.0286 -3.554 
3228 2 -5.55649 -6.85049 -3.66471 
3375 2 -5.77672 -6.00807 -3.39484 
2283 1 -4.60757 -6.24241 -3.76662 
2835 2 -3.28055 -6.35763 -4.10701 
1864 1 -4.34061 -7.02903 -3.58027 
2089 1 -3.44438 -6.70896 -2.96824 
1187 1 -4.06427 -6.13543 -3.12255 
2496 1 -2.75211 -6.7728 -3.25987 
882 1 -2.66155 -7.10394 -2.36796 
647 1 -1.21808 -6.55876 -3.62448 
2626 1 -0.421089 -6.57524 -3.90395 
894 1 -1.19213 6.9982 -3.95514 
401 1 -0.223015 6.91183 -4.25422 
3236 2 0.463901 -6.99752 -3.46274 
2038 1 -0.555883 -5.38289 -3.75524 
2969 2 0.354624 -6.32047 -3.23564 
1107 1 0.194117 -6.81186 -4.69708 
635 1 1.64756 -6.64571 -3.77016 
3303 2 2.6709 -6.84115 -4.0597 
2918 2 2.72176 -6.07128 -4.06105 
2145 1 3.96126 -6.85578 -4.36044 
1442 1 4.02084 7.07282 -3.63371 
2566 1 3.67418 -5.80348 -4.64338 
2825 2 5.12286 -6.36711 -4.71754 
60 1 5.78145 -6.89422 -3.90324 
2469 1 3.80084 -6.10043 -3.98129 
451 1 5.64499 -5.83392 -3.51834 
698 1 7.02108 -6.83661 -4.0898 
558 1 -6.12431 -5.31276 -4.48362 
316 1 -6.69838 -5.07302 -3.7964 
1994 1 -4.63116 -5.31806 -3.58797 
1071 1 -5.18186 -4.85531 -4.13719 
2896 2 -5.79792 -5.27837 -3.14543 
3413 2 -3.29627 -5.62556 -3.75895 
1551 1 -5.15647 -3.9556 -3.70914 
3562 2 -3.6372 -4.82502 -3.85623 
2350 1 -2.36076 -5.26466 -4.12841 
322 1 -2.41238 -5.90101 -3.13332 
2052 1 -1.11198 -4.62357 -3.08182 
2228 1 -1.81449 -5.71626 -3.583 
3285 2 -1.33939 -4.70814 -4.46117 
146 1 -1.11707 -5.69826 -3.15479 
1747 1 0.183248 -5.194 -4.38973 
2491 1 0.993521 -6.28791 -4.2494 
1211 1 1.47271 -5.75244 -4.32581 
798 1 0.909819 -5.18159 -3.79645 
1799 1 1.40426 -5.88063 -3.23371 
3379 2 2.31057 -5.57134 -3.8287 
3230 2 2.33062 -4.74353 -3.60594 
281 1 3.51387 -4.92861 -3.81169 
3244 2 4.63819 -4.80985 -4.13441 
98 1 5.9266 -4.31161 -3.96847 
3340 2 4.83293 -5.57304 -4.40844 
742 1 5.44551 -4.82902 -3.45017 
893 1 6.71245 -5.36819 -3.65897 
2571 1 6.4008 -6.13762 -3.85475 
523 1 -6.60739 -3.54448 -4.74272 
1182 1 -6.85081 -4.13896 -3.82937 
1449 1 -6.07886 -4.31435 -4.23044 
2388 1 -5.05607 -3.4482 -3.06797 
1299 1 -4.73946 -4.46293 -3.21037 
1671 1 -4.44592 -3.66932 -4.69812 
3536 2 -3.93652 -4.11711 -3.77161 
3376 2 -3.93446 -3.30061 -3.60796 
1285 1 -1.94645 -4.6805 -3.41336 
2102 1 -2.74596 -4.29816 -3.71436 
1028 1 -2.38954 -3.80695 -3.21405 
842 1 -0.746685 -3.73417 -3.49333 
2916 2 -1.50873 -3.96943 -4.22739 
2139 1 -0.751696 -2.87394 -3.62145 
2238 1 -0.25874 -3.82631 -4.06075 
1683 1 0.437466 -4.49087 -3.88552 
1967 1 1.28597 -4.63829 -4.15923 
303 1 1.91726 -3.88685 -4.53917 
1215 1 2.68123 -4.45356 -4.80685 
3015 2 2.46308 -3.92659 -3.43816 
2306 1 3.56863 -4.14656 -4.84734 
2857 2 4.58412 -4.03423 -3.89496 
1160 1 3.6268 -4.09602 -3.78128 
1961 1 5.59956 -3.18194 -4.1017 
655 1 6.71004 -4.57545 -3.48957 
335 1 7.10581 -3.79269 -3.24421 
1325 1 -6.12243 -2.53386 -4.0888 
1282 1 -7.12773 -1.46589 -3.77426 
844 1 -6.82792 -3.17523 -3.92491 
831 1 -5.79361 -3.51724 -4.02772 
935 1 -5.37715 -2.7639 -3.54447 
1835 1 -5.02635 -3.18081 -4.25483 
2674 1 -4.81474 -2.34687 -4.70852 
3083 2 -4.04127 -2.4838 -3.59853 
2400 1 -2.8943 -2.58772 -4.34438 
2766 2 -1.81542 -2.4257 -4.03637 
3198 2 -1.75899 -3.18117 -4.13035 
954 1 -1.26166 -1.90325 -3.26113 
2260 1 -1.2167 -3.132 -2.93414 
15 1 0.450404 -3.4877 -3.72425 
2540 1 -0.431517 -1.88961 -3.5791 
2558 1 1.48724 -3.56315 -3.92788 
566 1 1.04802 -2.60691 -3.9752 
153 1 3.5289 -3.29149 -4.62805 
1911 1 1.93927 -2.67107 -4.31911 
3353 2 4.57294 -3.20205 -3.99493 
3134 2 4.37556 -2.4052 -3.85909 
1653 1 3.34357 -3.04764 -3.84347 
2299 1 5.42406 -2.39143 -4.25427 
3173 2 6.56498 -3.38522 -4.47852 
2858 2 6.60215 -2.52248 -4.50902 
960 1 7.14742 -2.46647 -3.49141 
753 1 6.11554 -3.61538 -3.46206 
1428 1 6.18325 -2.74045 -3.42572 
2054 1 -6.00333 -1.34495 -3.78466 
44 1 -6.83763 -0.607966 -3.93934 
423 1 -7.1584 -1.14045 -4.60254 
1316 1 -5.34984 -1.87668 -4.05869 
56 1 -4.86486 -0.907669 -4.35526 
1343 1 -5.4282 -0.812211 -3.6949 
2132 1 -4.16968 -1.54939 -4.58401 
3229 2 -4.24291 -1.76814 -3.5599 
2302 1 -3.1302 -1.35095 -3.71709 
2278 1 -3.51406 -0.672023 -3.71886 
2789 2 -2.1558 -0.987582 -4.2162 
1127 1 -1.0212 -1.23952 -3.9799 
2748 2 -2.12827 -1.76233 -4.03384 
969 1 -1.33563 -1.36706 -4.94798 
370 1 0.142557 -2.68117 -3.86078 
1491 1 -0.196655 -1.07337 -3.37377 
2411 1 1.98911 -1.76796 -4.18327 
886 1 0.903543 -0.737008 -4.10344 
1644 1 1.16086 -1.64171 -4.05625 
2407 1 3.43813 -1.72344 -4.7532 
665 1 2.771 -1.71852 -4.08342 
891 1 3.00473 -2.25094 -3.37194 
876 1 1.7215 -0.673765 -4.02712 
941 1 2.91134 -1.04489 -4.46214 
2914 2 3.93099 -1.73638 -3.6298 
3483 2 3.77547 -0.978496 -3.65823 
1226 1 5.02826 -1.58017 -4.2898 
850 1 5.34297 -1.50885 -5.09773 
1788 1 5.05014 -1.17553 -3.38558 
3116 2 6.26826 -1.60842 -4.4185 
2856 2 6.0425 -0.842709 -4.25151 
716 1 6.7814 -0.628775 -3.5091 
2541 1 -6.90054 0.501907 -3.41619 
723 1 7.17737 1.40758 -3.3274 
493 1 -6.18748 -0.218692 -3.51141 
1781 1 -5.24441 0.0964211 -4.21461 
500 1 -4.12906 -0.688549 -4.40444 
580 1 -3.54563 0.229366 -2.63175 
697 1 -3.64488 0.235941 -3.74726 
3490 2 -2.42997 -0.383832 -3.81453 
3588 2 -2.5646 0.462175 -3.65337 
913 1 -1.26323 -0.437717 -4.1551 
857 1 -1.51076 0.436072 -3.96689 
737 1 -1.06591 -0.356483 -3.41061 
3555 2 -0.217275 0.510777 -4.38579 
2237 1 0.466039 0.537913 -3.64495 
2020 1 -0.414319 -0.0966436 -3.37139 
2187 1 1.25251 0.273891 -3.94959 
1971 1 0.548115 -0.555028 -3.42784 
583 1 0.615937 0.984066 -4.70236 
556 1 3.38504 -0.0937636 -4.6136 
130 1 2.62287 -0.12314 -4.25167 
2068 1 4.25502 0.0777886 -4.47872 
3305 2 3.58997 -0.236853 -3.43093 
1340 1 4.75735 -0.793222 -4.11285 
873 1 4.56343 0.0956147 -3.77325 
1514 1 6.90978 -0.214309 -4.36088 
2902 2 5.5735 -0.048166 -4.16521 
1807 1 6.13453 0.233751 -3.04627 
3263 2 -6.61343 0.999164 -4.49635 
1627 1 -6.35811 1.00382 -2.97777 
3260 2 -6.70291 1.68991 -4.17718 
918 1 -5.8492 0.572681 -3.69124 
1910 1 -4.24457 0.190857 -4.20272 
1913 1 -5.84807 1.638 -3.3747 
2077 1 -4.08831 1.6462 -3.75085 
412 1 -4.5986 1.01204 -4.05463 
1790 1 -3.98888 2.21525 -3.30325 
1531 1 -1.65907 2.28983 -3.82218 
3120 2 -2.59917 1.27229 -3.49085 
1198 1 -1.50796 1.40434 -3.74413 
3196 2 -0.540084 1.91027 -3.97665 
2950 2 -0.456763 1.24204 -4.23232 
1119 1 1.05436 1.21562 -3.76368 
14 1 0.466963 1.84345 -4.39336 
482 1 3.14712 0.822748 -4.63643 
2135 1 1.81633 1.07503 -3.50092 
2637 1 2.51249 0.853634 -4.10084 
2575 1 2.42912 1.67158 -3.98789 
504 1 3.88318 0.942381 -4.3331 
613 1 4.53355 0.866867 -3.53184 
1520 1 4.71297 0.856862 -4.67097 
2819 2 5.57211 0.699576 -3.99389 
3209 2 5.4621 1.42579 -3.84349 
1398 1 4.68835 1.91935 -4.59103 
253 1 6.81014 0.830326 -4.04731 
1684 1 6.71459 0.271372 -3.62533 
3033 2 -6.97249 2.31174 -4.41373 
2653 1 -5.68742 2.34604 -4.1011 
3456 2 -4.80913 3.11991 -4.60758 
2448 1 -5.39356 1.33199 -4.03029 
896 1 -4.94443 2.08836 -3.69428 
1986 1 -2.91503 3.49679 -3.94592 
1512 1 -3.83557 2.77149 -4.14932 
2177 1 -4.41813 3.01368 -3.37242 
966 1 -3.99305 3.61631 -3.77458 
1880 1 -2.82253 2.577 -4.47922 
3372 2 -2.79433 2.05616 -3.4251 
2529 1 -1.63929 2.14799 -3.02589 
2663 1 -1.58503 3.30822 -4.46903 
2860 2 -0.641583 2.62888 -3.77479 
3006 2 -0.988661 3.39259 -3.62195 
1486 1 0.627185 2.54493 -3.45997 
603 1 0.139937 1.61904 -5.12625 
1375 1 1.21011 2.05642 -3.45606 
3063 2 1.65326 2.2184 -4.28892 
3479 2 1.5793 3.02714 -4.30119 
204 1 1.90443 2.00667 -3.02507 
268 1 2.63879 2.54374 -4.06273 
1574 1 3.46864 2.40398 -4.07234 
1402 1 3.94486 3.25967 -3.95352 
47 1 3.19249 1.70759 -4.31869 
167 1 4.17451 1.70233 -3.79513 
1513 1 4.4244 2.86487 -4.48633 
3369 2 5.24142 2.08758 -3.55607 
2976 2 5.11313 2.84674 -3.46218 