ITEM: TIMESTEP
16200
ITEM: NUMBER OF ATOMS
3594
ITEM: BOX BOUNDS pp pp pp
-7.2081575788728447e+00 7.2081575788728447e+00
-7.2081575788728447e+00 7.2081575788728447e+00
-7.2081575788728447e+00 7.2081575788728447e+00
ITEM: ATOMS id type x y z 
2023 1 -6.03634 -6.65218 -5.98954 
2051 1 -6.87039 -6.56582 -6.53559 
1246 1 -5.86696 -6.43161 -6.94504 
3477 2 -5.12145 -7.13593 -5.86725 
3520 2 -4.85125 -6.37268 -6.00714 
2612 1 -3.80292 -6.27753 7.0792 
1654 1 -3.97132 -6.95347 -6.80178 
977 1 -3.89844 -6.33144 -6.28511 
601 1 -4.62947 -6.27567 -6.98069 
1361 1 -3.99841 -5.47364 -6.32078 
2944 2 -2.68975 -6.54854 -6.71695 
1210 1 -1.42093 -6.03919 -6.21024 
448 1 -1.65421 -6.95585 -7.17675 
3368 2 -0.539984 -6.29022 -7.06664 
1088 1 0.524447 -6.4069 -6.36995 
1567 1 -0.499822 -7.05052 -6.15066 
3537 2 -0.583491 -6.95391 7.06637 
2415 1 1.23012 -6.60824 -6.71094 
1073 1 1.69344 -5.95664 -6.47393 
686 1 2.18155 -7.19273 -6.47674 
2256 1 2.18708 -6.09738 -5.93213 
2623 1 2.46616 -6.5085 -6.91237 
3442 2 3.55269 -7.18278 -6.31029 
209 1 4.51738 -6.55884 -5.77356 
645 1 4.6737 -6.05029 -6.63481 
2957 2 3.38434 -6.43936 -6.20395 
1234 1 4.28799 -6.7311 -7.10254 
3208 2 5.68583 -6.71265 -7.06231 
2812 2 5.66828 -5.83514 -6.91206 
1954 1 -7.1199 6.81311 -6.63129 
1373 1 6.82293 -6.00104 -6.85904 
1263 1 6.49775 -6.5069 -6.28235 
1526 1 6.63797 -5.67034 -5.93144 
2045 1 -6.85285 -5.74999 -6.33173 
355 1 -6.54399 -4.93275 -5.90739 
639 1 7.12267 -4.78302 -6.29181 
1282 1 -5.98315 -5.42579 -6.46485 
2122 1 -4.6034 -5.17824 -6.83998 
3416 2 -5.21555 -5.72852 -5.88987 
1784 1 -4.19806 -4.61819 -6.01445 
1184 1 -3.78752 -5.51091 -7.19388 
3574 2 -2.849 -5.80995 -6.58739 
2981 2 -2.93281 -5.1655 -6.2616 
2627 1 -1.64219 -6.11651 7.17321 
2543 1 -1.88354 -5.34966 -6.81538 
1582 1 -2.09445 -5.78703 -5.69789 
2491 1 -1.04489 -5.44115 -5.88847 
3019 2 -0.652897 -5.44602 7.16937 
527 1 -0.0896317 -5.2564 -6.28025 
579 1 0.396737 -4.64241 -6.7825 
1722 1 -0.435858 -4.55866 -5.78342 
1905 1 0.78244 -5.71167 -6.71981 
40 1 1.12454 -4.93622 -6.36882 
2933 2 3.22519 -5.73944 -6.10302 
1425 1 1.95435 -5.11319 -6.49638 
1215 1 4.29191 -5.24306 -6.63986 
1770 1 3.70372 -5.14607 -7.08422 
3212 2 5.62448 -5.06633 -6.55837 
10 1 6.69759 -5.14366 -6.81171 
1362 1 6.20206 -4.63407 -5.78386 
3029 2 -6.85232 -4.28431 7.1565 
304 1 -6.34532 -3.99967 -6.41042 
2975 2 -7.15052 -3.4914 -7.13953 
659 1 -6.50801 -3.21709 -5.56765 
923 1 -5.60748 -4.6957 -6.88271 
1671 1 -5.29499 -3.81212 -6.69799 
1087 1 -4.61862 -4.23434 -6.65122 
2699 1 -3.75021 -3.35815 -7.14371 
1800 1 -4.52661 -3.28338 -6.4586 
3061 2 -3.05388 -4.34416 -5.98881 
2549 1 -2.2246 -4.39294 -6.82332 
37 1 -2.35563 -3.53987 -7.09945 
3484 2 -0.952332 -4.79709 -6.87997 
2808 2 -1.02834 -4.09323 -6.6947 
842 1 0.0667463 -4.0064 -6.43087 
139 1 -0.473949 -3.59356 -5.58123 
644 1 0.00995206 -3.27029 -6.8338 
502 1 0.916646 -3.86802 -6.167 
799 1 1.69551 -4.42629 -5.59024 
2178 1 1.58645 -3.41246 -6.05319 
1738 1 1.87794 -4.26817 -6.49036 
2407 1 3.65024 -4.35047 -6.98215 
2599 1 2.19443 -3.43735 -6.63324 
1695 1 4.0316 -4.43435 -6.05425 
388 1 3.73698 -3.59519 -6.37545 
1085 1 4.29537 -3.81769 -7.19039 
3266 2 5.04857 -4.52494 -6.50163 
2767 2 5.07491 -3.84304 -6.25429 
2479 1 6.52874 -3.95188 -6.19056 
802 1 7.09925 -3.30651 -5.74759 
1788 1 6.17543 -3.90949 -6.88959 
2331 1 6.21434 -4.62651 7.11069 
1354 1 -6.02197 -3.15642 -6.31532 
670 1 -6.65425 -2.39718 -5.88594 
2074 1 -6.31731 -2.28244 -7.03695 
83 1 -4.70311 -1.94702 -6.32656 
1581 1 -5.26784 -2.84238 -6.44796 
1445 1 -3.90288 -2.4961 -6.95811 
1370 1 -3.04417 -2.7114 -6.687 
2289 1 -2.34415 -2.4308 -6.88891 
821 1 -2.52459 -2.31314 -6.07027 
395 1 -3.30906 -1.83441 -6.58675 
128 1 -2.22464 -3.25079 -6.40328 
3332 2 -1.06727 -3.25991 -6.5812 
3234 2 -1.46344 -2.55195 -6.3947 
1106 1 -0.157342 -2.68425 7.03111 
2105 1 -0.173546 -3.00906 -5.92801 
2187 1 0.669408 -2.85565 -6.05933 
84 1 1.57248 -2.50394 -6.01377 
1635 1 1.99933 -2.51505 -6.75153 
985 1 2.98599 -3.81562 -6.95919 
1834 1 2.98547 -2.92882 -6.6736 
1976 1 4.01728 -3.07945 -6.92456 
2500 1 4.16566 -2.26326 -6.84951 
3550 2 4.71026 -3.14622 -6.06119 
2972 2 4.4914 -2.30856 -5.80559 
377 1 5.68635 -2.3251 -6.0888 
2360 1 5.90223 -2.85377 -6.98016 
3126 2 7.07173 -2.87682 -6.74256 
1372 1 6.375 -3.02999 -5.98439 
3087 2 6.91135 -2.03066 -6.62787 
2126 1 -6.49347 -1.47875 -6.59663 
1392 1 -5.75568 -1.90373 -6.19135 
1340 1 -5.5886 -1.10188 -5.96078 
3360 2 -5.40412 -1.17847 -7.00153 
2578 1 -4.64898 -1.0078 -6.22318 
3097 2 -5.42696 -0.428117 -6.95609 
1315 1 -4.03068 -1.51081 -6.6287 
1457 1 -3.51152 -0.547967 -6.57041 
2677 1 -4.36363 -0.662276 -7.15648 
900 1 -2.45142 -1.48897 -6.78912 
2718 1 -2.90702 -1.04551 -6.12942 
3105 2 -1.45123 -1.70367 -6.10277 
902 1 -1.08312 -1.20005 -7.14793 
1094 1 -0.233873 -2.42612 -6.48722 
3151 2 0.664306 -1.2415 -6.80442 
2108 1 -0.519299 -1.00489 -6.44921 
2804 2 0.789424 -1.96943 -6.87069 
925 1 1.47148 -1.58886 -6.08941 
1938 1 1.94179 -0.98953 -6.41173 
2558 1 2.43493 -1.94476 -6.31082 
42 1 2.7308 -1.08122 -6.22362 
2617 1 3.25202 -2.00816 -6.45843 
366 1 3.85442 -1.20708 -6.75182 
1111 1 4.42947 -1.4901 -7.1805 
1806 1 5.33558 -1.82205 -6.80814 
2477 1 4.93617 -1.0706 -6.82826 
1414 1 5.54911 -1.24893 -6.15939 
2840 2 6.62365 -1.35671 -6.42565 
1092 1 5.88389 -1.03075 7.19352 
2797 2 6.70559 -0.380503 -6.23496 
2510 1 -6.58486 -0.66884 -6.54403 
1369 1 -6.56742 0.99085 -5.44198 
253 1 -6.68091 0.293171 -6.13467 
3127 2 -5.55459 0.341247 -6.77019 
2300 1 -4.10805 0.0790617 -6.35871 
1815 1 -3.05077 -0.121846 -5.90645 
2180 1 -3.71547 0.87151 -6.089 
174 1 -2.60725 -0.549613 -6.81268 
743 1 -2.04892 0.0896791 -7.11238 
1238 1 -2.58463 0.525526 -6.49748 
1993 1 -1.035 -0.30631 -7.10104 
28 1 -0.640592 -0.0837313 -6.18654 
1265 1 -1.41696 0.462944 -6.91132 
1745 1 -1.83367 -0.783572 7.18367 
3088 2 0.697769 -0.5379 -6.70045 
3311 2 0.487257 0.0870095 -6.29693 
1241 1 1.36828 0.679921 -7.03865 
175 1 1.59185 -0.0913193 -6.56956 
2960 2 2.66802 0.203154 -7.08396 
530 1 2.27293 -0.214992 -6.04216 
3195 2 2.62931 -0.724869 7.07244 
1698 1 3.52897 -0.460946 -6.57301 
850 1 4.08889 0.512803 -6.52037 
565 1 4.96591 0.289354 -6.51278 
1895 1 4.38824 -0.381473 -6.68509 
263 1 5.56796 -0.424704 -6.54209 
2086 1 5.74197 0.687319 -6.79745 
140 1 5.45397 0.146714 -5.8354 
3135 2 6.61248 0.22776 -5.93689 
3038 2 6.29717 0.948307 -5.87654 
2151 1 -6.97074 1.06266 -6.15017 
1584 1 -6.92591 1.55332 -6.9413 
3140 2 -6.05257 1.64619 -6.40892 
3007 2 -5.85443 0.968674 -6.54743 
2386 1 -4.83275 1.93335 -6.68802 
499 1 -4.66872 1.00214 -6.52091 
2560 1 -4.12942 1.8697 -5.80209 
3148 2 -3.54385 1.39921 -7.15634 
2320 1 -3.24864 1.53266 -5.7671 
3329 2 -3.43882 0.566086 -7.16204 
1116 1 -2.50852 1.44175 -6.52006 
1257 1 -0.808598 1.58043 -6.6541 
75 1 -0.715538 0.983616 -5.87594 
2208 1 -0.923894 1.84838 -5.79194 
337 1 -1.6896 1.17797 -6.70593 
1978 1 -0.678789 0.680889 -6.90975 
2928 2 0.37295 0.946956 -6.33787 
225 1 0.526626 1.87091 7.09762 
1059 1 0.644743 0.98337 7.01382 
1368 1 1.20488 1.66675 -7.0082 
171 1 1.46854 1.12568 -6.18792 
3459 2 2.56297 1.05903 -7.00393 
3393 2 2.3936 1.89413 -6.76661 
50 1 4.46967 1.43077 -6.28183 
1286 1 3.1132 1.96617 -5.86579 
1889 1 3.74438 1.87082 -6.63982 
2445 1 5.85111 1.51251 -7.1087 
889 1 5.23093 1.80361 -6.42846 
2072 1 5.16212 1.12117 -5.96728 
3060 2 6.25766 1.73291 -5.72144 
571 1 7.0785 0.633665 -6.92073 
1455 1 -6.52579 2.38544 6.77992 
3465 2 -6.04822 2.41783 -6.20501 
2736 2 -6.25418 3.19392 -6.15986 
1760 1 -7.00292 2.65966 -6.91905 
141 1 -5.12038 2.77027 -6.85807 
3093 2 -3.84165 2.19097 -7.04002 
2783 2 -4.15949 2.96886 -6.99844 
2037 1 -3.46643 2.29243 -6.00481 
732 1 -2.86375 2.98947 7.05869 
561 1 -2.83937 2.34302 -6.60155 
343 1 -3.13408 3.16011 -6.32617 
1523 1 -2.58286 1.9563 7.05524 
1353 1 -1.50215 2.13791 -6.5973 
1932 1 -0.932457 2.7502 -6.59716 
1894 1 -2.06705 2.78301 -6.40436 
3078 2 0.221277 1.72753 -6.18564 
2508 1 0.266256 2.94151 -7.19697 
3444 2 0.0654706 2.57117 -6.11183 
221 1 1.366 1.96488 -6.1647 
3478 2 1.95322 3.39649 -6.373 
1098 1 0.905118 2.50661 -6.81087 
3417 2 2.09927 2.64344 -6.64835 
96 1 3.03158 2.95877 -7.07085 
588 1 3.36166 2.89104 -6.34285 
2765 2 4.21139 2.65987 -7.17804 
1113 1 4.02582 2.32691 -6.03449 
856 1 3.30954 2.22338 7.10259 
2305 1 5.97758 2.27404 -6.70046 
1927 1 4.86672 2.45288 -6.43301 
122 1 6.70274 1.4121 -7.00011 
131 1 6.8921 2.15177 -6.41787 
2594 1 6.45807 3.16546 -6.55923 
3238 2 -6.38368 4.00839 -6.14068 
718 1 -6.155 3.37542 7.15214 
1879 1 -6.28772 4.31609 -7.20452 
3045 2 -6.62716 4.77448 -5.81226 
2010 1 -5.36806 3.81801 -7.03609 
2200 1 -5.1727 3.49841 -6.17794 
1318 1 -5.42907 4.3851 -6.35171 
3408 2 -4.08588 3.69858 -6.83154 
3411 2 -4.23744 4.52631 -6.57275 
2576 1 -3.05582 3.69257 -7.07991 
989 1 -2.2676 3.57225 -6.33941 
1102 1 -3.11987 4.39214 6.65466 
1030 1 -2.73881 4.27325 -6.34517 
1499 1 -1.10504 3.58578 -6.46096 
597 1 -0.753207 4.62909 -6.84342 
474 1 -0.0405636 3.75763 -6.89324 
2522 1 0.78531 3.51789 -6.50697 
1016 1 0.93207 4.31362 -6.75561 
3466 2 1.81547 4.1683 -6.27426 
1486 1 0.610962 4.55154 -5.85531 
430 1 2.74728 3.89243 -7.18495 
614 1 3.08322 3.72631 -6.4691 
1066 1 3.48351 4.07299 -5.921 
268 1 3.97183 3.31094 -5.96123 
3223 2 4.0562 4.23858 -6.93064 
2092 1 4.2492 4.16263 -5.80007 
2066 1 4.81613 3.69882 -6.23118 
1247 1 5.27481 4.52145 -6.66052 
1515 1 5.3716 3.03746 -6.71063 
115 1 6.82231 3.95434 -5.7559 
404 1 5.81799 3.77992 -6.60162 
2541 1 7.12881 3.00995 -5.91907 
248 1 7.11594 3.81878 -6.59696 
66 1 -6.99567 5.56985 -7.18887 
2396 1 -6.35567 5.06968 -6.92839 
3147 2 -6.86334 5.59531 -5.70784 
1004 1 -5.6597 5.16733 -5.9262 
3471 2 -4.51644 5.37856 -6.36059 
3463 2 -4.69226 6.02573 -6.05244 
715 1 -3.26733 5.00875 -5.87373 
2839 2 -1.97442 4.79901 7.06467 
59 1 -3.19006 4.72242 -6.97317 
883 1 -2.3247 4.89486 -6.04012 
2832 2 -2.32719 5.43258 -6.94987 
1140 1 -3.30715 5.71964 -6.47902 
1652 1 -1.17427 5.72339 -6.73914 
1253 1 -1.39258 4.95038 -6.30332 
197 1 -1.78131 4.20088 -6.05663 
2630 1 -0.407848 5.64061 -6.57359 
2626 1 0.0361839 4.65783 -6.56423 
2429 1 0.722103 5.39855 -6.88315 
3138 2 1.53904 5.09861 -6.17196 
2322 1 1.0216 6.21405 -6.99582 
2831 2 1.31561 5.86135 -5.98588 
1923 1 2.89574 4.67033 -6.63952 
486 1 2.70374 5.49631 -6.27978 
215 1 1.92103 5.22665 -7.15637 
2790 2 3.93919 5.17088 -6.85191 
2160 1 6.05197 5.08593 -6.30446 
865 1 5.06622 5.48175 -6.82037 
274 1 5.55492 6.00101 -6.37117 
908 1 4.72296 4.91295 -6.17383 
112 1 7.01082 5.09027 -6.54137 
795 1 6.49277 4.43746 -6.48038 
244 1 6.43592 5.83224 -6.31477 
1437 1 -6.41872 6.89698 -6.23356 
558 1 -6.19967 6.00052 -6.53261 
1415 1 -5.82214 7.16879 -6.71619 
1616 1 -5.85177 6.19042 -5.73293 
3150 2 -4.59525 6.85136 -6.12157 
262 1 -5.07072 -6.9573 7.14048 
2437 1 -5.38772 6.47979 -6.99174 
1619 1 -3.47825 6.58309 -6.33781 
1262 1 -3.75784 6.80282 -7.14914 
3454 2 -2.41335 6.21353 -6.87233 
3268 2 -2.61685 7.06982 -6.60418 
26 1 -1.38538 -6.95076 -6.32184 
345 1 -1.39608 6.5881 -6.42122 
2326 1 -1.69492 5.84457 -5.95334 
1702 1 -0.53761 6.47247 -6.4123 
1333 1 0.35715 7.12883 -6.63801 
798 1 0.361015 6.28509 -6.42553 
1685 1 1.45303 7.10565 -6.89794 
725 1 1.98888 6.16215 -6.89901 
1538 1 2.69622 6.91116 -7.10691 
295 1 2.54257 6.43874 -6.25313 
3569 2 3.9084 5.94 -6.7381 
3587 2 3.56232 6.55603 -6.53014 
805 1 4.79938 -7.16358 -6.68906 
2787 2 5.96006 6.85064 -7.08009 
1051 1 5.54991 6.81826 -6.06647 
2136 1 6.57269 6.99905 -6.18654 
1530 1 -7.20436 6.05629 -6.59206 
3487 2 -7.12104 -6.7142 -5.42947 
1893 1 -5.81088 -6.56946 -4.98958 
1772 1 -5.01546 -6.77518 -4.82571 
1885 1 -4.96286 -5.93095 -4.73042 
1691 1 -3.5217 -6.97091 -5.71585 
1725 1 -4.19186 -6.49419 -5.2479 
356 1 -2.58226 -7.16318 -5.4619 
1252 1 -2.17206 -6.27743 -4.43123 
520 1 -2.71094 -6.27583 -5.36029 
3594 2 -1.08324 -6.53505 -5.17896 
3455 2 -0.980314 7.03794 -5.15351 
658 1 -2.07564 -6.63044 -5.77742 
1881 1 0.042967 -6.33025 -5.24445 
1643 1 -0.385743 -6.10366 -5.94383 
1107 1 -0.00953567 -7.05033 -5.52701 
3128 2 1.31847 -6.32276 -5.4923 
862 1 2.19807 -6.35447 -5.04983 
245 1 2.37596 -7.02971 -5.82849 
1992 1 3.27358 -6.98473 -5.21042 
224 1 2.97465 -6.10258 -5.1835 
893 1 3.91121 -6.53807 -4.40089 
281 1 4.28945 -7.08193 -5.24692 
2462 1 3.95145 -6.09139 -5.21378 
589 1 5.30641 -5.94169 -5.92202 
3290 2 5.22124 -6.34249 -4.74546 
317 1 6.13763 -6.33001 -5.6239 
2828 2 -7.11571 -5.89644 -5.00947 
1718 1 -6.24322 -5.89417 -5.61055 
1872 1 -6.2203 -4.90442 -5.07294 
3325 2 -5.05819 -5.03522 -5.58534 
1481 1 -5.64798 -5.38859 -4.74939 
2727 1 -4.31852 -5.5295 -4.98073 
1344 1 -3.43357 -6.06435 -5.44031 
2350 1 -3.53368 -5.10068 -5.30143 
1836 1 -2.61842 -5.44363 -5.01827 
2426 1 -2.59338 -4.40254 -5.06586 
3322 2 -1.25649 -5.71736 -4.7875 
3480 2 -1.4848 -4.94352 -4.46239 
15 1 -0.302836 -5.19081 -5.26376 
2826 2 0.796972 -5.67133 -5.52702 
1998 1 1.56535 -4.78585 -4.63105 
3068 2 0.691284 -4.88842 -5.40701 
3249 2 3.06996 -4.92251 -6.06349 
1416 1 1.50796 -5.77571 -4.6321 
2113 1 2.03372 -5.24019 -5.46777 
1075 1 2.60269 -5.32586 -4.92922 
665 1 3.47309 -5.63951 -4.76233 
847 1 3.99034 -4.89788 -5.27669 
628 1 4.51856 -5.42725 -5.77209 
2656 1 5.18778 -4.87399 -5.48206 
85 1 5.90278 -5.47952 -5.27344 
1320 1 5.70949 -4.57053 -4.80269 
1000 1 6.02499 -5.48269 -4.28429 
3010 2 7.0404 -5.09295 -4.88205 
2015 1 -6.91525 -4.02608 -5.94972 
472 1 -6.57184 -4.46853 -4.19975 
2106 1 -6.38873 -4.02338 -5.14856 
2912 2 -5.42708 -4.41095 -5.7338 
2737 2 -5.41225 -3.7235 -5.47595 
3041 2 -3.36205 -3.49136 -5.99489 
1071 1 -4.50418 -3.80667 -5.75784 
2248 1 -3.43206 -4.05218 -5.01401 
1465 1 -4.19082 -3.35466 -5.00071 
722 1 -1.78222 -4.87679 -5.82537 
2139 1 -2.32451 -3.60079 -5.47339 
2238 1 -1.17855 -4.2108 -5.49627 
995 1 -1.87286 -4.0171 -6.09842 
851 1 -1.15919 -3.11763 -5.54138 
2768 2 0.664969 -4.12503 -5.1869 
2102 1 -0.420123 -4.33643 -4.59362 
891 1 1.63323 -3.6831 -5.18532 
3014 2 2.81036 -4.05543 -5.88586 
1863 1 2.46662 -4.32893 -4.7459 
2150 1 3.42352 -4.47554 -4.97381 
1313 1 3.88173 -3.45053 -5.24435 
1385 1 4.37374 -4.07755 -5.39987 
190 1 5.16918 -3.7565 -5.19122 
3080 2 6.90709 -4.25684 -4.95133 
3173 2 6.72613 -3.5024 -4.72456 
452 1 6.02331 -3.82323 -5.51113 
346 1 -7.14328 -1.74954 -4.86431 
2890 2 -5.38829 -2.91871 -5.31044 
2974 2 -5.67066 -2.24818 -5.11726 
56 1 -5.00258 -1.52064 -5.57255 
477 1 -4.53284 -2.64072 -5.9292 
2869 2 -3.45585 -2.69123 -5.66798 
2310 1 -3.48298 -2.88134 -4.5445 
1864 1 -4.39963 -2.41677 -4.79711 
1790 1 -2.67869 -2.20944 -5.04407 
2480 1 -1.63397 -1.98694 -5.06122 
1953 1 -2.05014 -2.76936 -5.50538 
1767 1 -0.565966 -2.27743 -5.67066 
3227 2 0.500354 -3.38599 -5.06092 
3430 2 0.0284748 -2.7721 -4.7439 
250 1 0.366874 -2.14465 -5.69106 
1611 1 1.22275 -2.61536 -5.25945 
2830 2 2.63358 -3.16845 -5.43478 
3356 2 2.32751 -2.45333 -5.36743 
1472 1 3.58501 -2.62839 -4.94826 
1859 1 3.50186 -2.68878 -5.98171 
72 1 4.70521 -2.96621 -4.98635 
153 1 4.40729 -2.19603 -4.86139 
734 1 5.6078 -2.92127 -5.37508 
351 1 -6.77912 -2.84666 -4.91453 
1207 1 6.80109 -2.23313 -5.55154 
2858 2 6.36354 -2.81769 -4.6 
720 1 -6.77335 -1.57969 -5.66783 
1999 1 6.79432 -0.969632 -5.15798 
2993 2 -5.85285 -1.53526 -4.83679 
1145 1 -6.8653 -0.732193 -5.69518 
3267 2 -6.17119 -0.843568 -4.8676 
2132 1 -5.07497 -0.586651 -5.25905 
1514 1 -4.75881 -0.695788 -4.51539 
2844 2 -3.66875 -1.86104 -5.56797 
3543 2 -3.78353 -0.995013 -5.52269 
484 1 -2.51428 -1.46371 -5.44421 
1928 1 -2.95147 -1.22892 -4.6943 
1057 1 -0.798508 -1.59094 -5.13049 
1380 1 -1.76104 -1.1703 -4.87052 
1946 1 -0.169817 -1.3012 -5.84244 
400 1 -0.659732 -0.618193 -5.33821 
3354 2 0.137673 -1.97641 -4.64099 
1837 1 0.696479 -1.06845 -5.58944 
2434 1 1.29092 -1.0619 -4.71189 
247 1 1.09284 -1.71477 -5.34493 
3557 2 2.27694 -1.67655 -5.27609 
3449 2 2.18864 -0.697102 -4.9713 
2535 1 3.23029 -0.880153 -5.48445 
483 1 3.53858 -0.504768 -4.59615 
2336 1 3.90917 -1.49455 -4.83598 
859 1 3.38142 -1.76675 -5.42157 
2995 2 4.30711 -1.48973 -5.96489 
2352 1 5.2994 -2.02752 -5.10682 
1830 1 5.89911 -0.649825 -5.25417 
656 1 6.07427 -1.66111 -5.44286 
1841 1 -6.96136 0.0032598 -5.39766 
1402 1 7.03527 -0.0709109 -4.75148 
2641 1 -4.92491 -0.253668 -5.97281 
194 1 -6.01413 -0.401251 -5.86025 
385 1 -5.11422 0.169093 -4.83997 
3256 2 -3.89233 -0.269437 -5.20496 
3144 2 -4.02809 0.470234 -5.03444 
2077 1 -1.91657 -0.401354 -4.84066 
580 1 -2.92087 0.725054 -5.37258 
827 1 -2.71163 -0.480408 -5.28834 
969 1 -2.57486 0.234669 -4.74552 
3200 2 -1.59506 -0.88717 -6.01784 
2796 2 -1.75851 0.00964653 -6.02123 
1618 1 0.104664 -0.253571 -5.4455 
1531 1 -1.11713 0.0112408 -4.96878 
1432 1 -0.194031 0.518378 -5.24017 
1777 1 1.26217 -0.610273 -5.79308 
1890 1 0.982647 -0.181568 -4.93896 
1713 1 1.28325 0.276735 -5.63563 
1700 1 1.21694 -0.195823 -4.18156 
886 1 3.17811 -0.0765352 -5.40174 
3383 2 2.12099 0.0876593 -4.93604 
2730 1 3.181 0.235511 -6.17429 
2848 2 4.29737 -0.293461 -5.63908 
2068 1 5.34471 0.448907 -5.07151 
3317 2 4.72748 -1.05821 -5.5752 
823 1 4.99892 -0.218893 -4.64839 
1568 1 6.23032 0.242805 -4.84012 
2130 1 6.25757 1.09112 -4.71791 
806 1 -6.33964 1.74753 -5.19259 
1200 1 7.13257 0.789011 -5.07905 
698 1 7.04371 1.57652 -4.87836 
90 1 -5.03339 0.508255 -5.88044 
443 1 -4.99908 1.4968 -5.76444 
1151 1 -5.76603 0.429136 -5.43355 
408 1 -5.49608 1.24035 -5.01353 
493 1 -4.99477 1.11608 -4.19532 
3062 2 -4.35 1.94208 -4.72133 
2861 2 -4.28625 1.24204 -4.99032 
2846 2 -2.02475 1.74867 -5.46983 
2601 1 -3.17066 1.75464 -4.91999 
1880 1 -1.02051 1.04499 -4.85135 
2939 2 -1.90153 0.754751 -5.76575 
867 1 -0.169792 1.51874 -5.16881 
2708 1 0.5478 1.5503 -4.69434 
2406 1 1.06147 1.38389 -5.34818 
970 1 2.20939 1.61722 -5.77974 
1296 1 0.703813 0.621238 -5.04475 
1176 1 2.76683 2.12609 -5.14254 
1997 1 2.24514 0.749414 -5.91007 
3443 2 1.92306 0.890609 -4.68751 
2575 1 2.93529 1.01851 -5.23924 
3364 2 4.2643 0.519031 -5.31731 
1185 1 3.41546 1.0732 -6.18325 
3388 2 4.06495 1.43274 -5.15809 
941 1 5.39281 1.35504 -5.11768 
234 1 4.82801 0.617622 -4.40171 
1882 1 6.19704 2.02678 -4.5805 
13 1 -6.07595 2.53802 -4.95972 
92 1 -6.55686 3.20648 -5.22709 
1607 1 -5.41919 2.14288 -5.30005 
1335 1 -4.76797 2.64443 -5.93239 
2845 2 -4.5904 2.59641 -4.76282 
2523 1 -3.86596 2.93886 -5.80388 
1965 1 -3.48627 2.57815 -5.25761 
3117 2 -2.36542 2.57149 -5.35561 
1933 1 -1.0466 2.65314 -5.61818 
2489 1 -1.34464 2.9061 -4.85762 
1661 1 -0.401456 2.4006 -4.95797 
2271 1 0.16733 3.14014 -4.92107 
46 1 -0.543819 3.26262 -4.77306 
673 1 1.10037 2.79601 -5.69704 
1375 1 0.550775 2.29413 -5.25936 
47 1 1.81705 2.38852 -5.47171 
785 1 2.76617 2.82186 -5.78251 
1644 1 2.52501 2.89562 -4.60653 
1398 1 4.631 2.83166 -5.69269 
3433 2 3.85695 2.17569 -5.07548 
2894 2 3.61832 3.08751 -5 
2327 1 5.32048 2.38821 -4.53154 
2584 1 4.96164 2.11309 -5.60751 
1883 1 4.68789 2.76 -4.78769 
3298 2 5.74808 3.20229 -5.67391 
2690 1 -6.95278 2.0845 -5.70548 
3414 2 6.08433 2.52857 -5.54964 
1169 1 7.05838 2.5407 -5.0099 
1939 1 6.90967 3.48385 -4.95303 
60 1 -6.8928 4.02893 -5.07791 
491 1 -6.0983 3.62992 -4.64691 
928 1 -5.50329 3.34359 -5.34267 
1669 1 -4.9167 4.30107 -5.65373 
822 1 -5.718 4.21744 -5.25279 
1833 1 -3.75589 3.44866 -5.07265 
1224 1 -4.41054 3.56644 -5.67604 
668 1 -3.55115 3.86591 -5.95937 
1543 1 -3.93517 4.37832 -5.47163 
2945 2 -2.54584 3.26181 -5.24108 
2977 2 -2.72665 3.98667 -5.24141 
1056 1 -1.57084 3.82549 -5.06165 
1744 1 -1.5954 3.3753 -5.78683 
1091 1 -1.63105 4.60525 -5.00613 
2813 2 -0.102843 3.28669 -5.97895 
3378 2 -0.518371 3.99333 -5.66525 
1201 1 0.34353 3.95531 -5.00133 
894 1 0.896335 3.73234 -5.6058 
23 1 1.78997 4.12858 -5.10783 
324 1 2.70188 3.6996 -5.54623 
1639 1 1.96504 3.28308 -5.2919 
3013 2 3.48969 3.89129 -4.80396 
2414 1 4.59767 4.47974 -4.70339 
2231 1 4.56616 3.76602 -5.12541 
2917 2 5.61543 3.89584 -5.44326 
462 1 6.33349 4.09432 -4.54117 
1060 1 -6.71083 4.84029 -4.61181 
297 1 -6.26807 5.54388 -4.74843 
683 1 -5.77448 4.99954 -5.11801 
2308 1 -4.75744 5.17779 -5.25462 
803 1 -3.88115 5.12277 -5.11263 
2865 2 -2.80222 4.66097 -4.79982 
3458 2 -2.94035 5.37053 -4.70229 
3392 2 -0.629976 4.73201 -5.59789 
3207 2 -0.697316 5.47092 -5.33398 
1665 1 -1.68216 5.89171 -4.71958 
287 1 -2.01297 5.25223 -5.36143 
849 1 0.24151 5.45032 -6.0105 
1521 1 0.0603808 4.87105 -4.70118 
1141 1 0.438483 5.39486 -5.16214 
586 1 0.926846 4.7441 -5.09534 
924 1 1.216 5.71581 -4.85986 
825 1 1.79982 5.12284 -5.11546 
103 1 2.50308 4.68115 -5.44842 
1513 1 3.3799 5.96699 -5.64461 
2814 2 3.26062 4.66081 -4.73326 
2172 1 4.19747 6.03932 -4.94036 
2028 1 3.44329 5.09231 -5.8763 
1295 1 4.54504 5.94072 -5.87197 
451 1 4.22382 5.08175 -5.46169 
2927 2 5.50707 4.75497 -5.40556 
3257 2 5.43308 5.64838 -5.22904 
2546 1 6.90066 4.74384 -4.71245 
1667 1 6.54834 4.98913 -5.55165 
2539 1 6.51566 5.71074 -4.81705 
1442 1 6.12555 5.21744 -4.16287 
2574 1 -5.9289 6.93362 -5.17564 
1555 1 -6.19838 6.3757 -4.58372 
2747 2 -7.03973 6.92856 -5.41335 
3330 2 -7.05583 6.23529 -5.36605 
1490 1 -5.06055 6.87472 -4.89307 
2573 1 -5.30428 5.9627 -5.09182 
1396 1 -3.7298 5.83376 -5.58435 
964 1 -4.0186 7.07867 -5.15031 
1235 1 -4.31276 6.14655 -4.99253 
1227 1 -3.07654 6.60918 -5.62529 
786 1 -2.7239 5.82428 -5.70932 
2988 2 -2.90793 6.16159 -4.59319 
1453 1 -2.03605 -7.17092 -4.86141 
2018 1 -1.84851 7.0375 -5.83293 
3018 2 -0.790853 6.18957 -5.34662 
1394 1 -2.07819 6.37744 -5.35314 
1709 1 0.290657 6.50762 -5.55277 
1435 1 0.443319 6.13452 -4.7703 
2978 2 1.12455 -7.0944 -5.75089 
2899 2 1.41178 6.53709 -5.71476 
1689 1 2.20637 7.19282 -4.81272 
372 1 2.29948 5.88627 -5.38505 
1175 1 2.73075 6.61328 -5.28424 
492 1 3.77644 6.67205 -5.20865 
302 1 4.75708 6.69359 -5.98925 
1724 1 5.4146 -6.8196 -5.78187 
2926 2 5.12748 -7.16065 -4.62795 
2971 2 5.2001 6.45107 -4.86553 
329 1 6.14897 7.07179 -5.48737 
16 1 6.36993 6.12414 -5.52869 
2473 1 6.61342 6.60336 -4.63367 
1673 1 -6.30809 -6.06422 -4.46722 
2571 1 7.03805 -6.95021 -4.33854 
1312 1 -6.52079 -7.15611 -4.48089 
2162 1 -6.9012 -6.42812 -3.84131 
3469 2 -5.32397 -6.89998 -3.70138 
582 1 -4.67307 -5.77683 -3.77511 
3228 2 -5.6631 -6.27757 -3.60693 
1148 1 -4.44639 -6.7148 -4.24724 
2332 1 -4.21705 -6.58046 -3.44225 
2835 2 -3.31591 -6.50601 -4.4337 
959 1 -3.01827 -6.96909 -3.24049 
1506 1 -2.34009 -6.15863 -3.51885 
1629 1 -0.775821 -6.14437 -3.92495 
350 1 -1.48778 -6.73872 -3.95503 
3236 2 0.486271 -6.36169 -3.4953 
1945 1 -0.244921 -6.65859 -4.44942 
1747 1 -0.419435 -7.07276 -3.65317 
1382 1 0.692744 -6.32001 -4.53811 
1249 1 1.47481 -6.68945 -4.20106 
3303 2 2.98363 -6.77715 -4.18488 
2918 2 2.55839 -6.07353 -3.9686 
1967 1 2.08449 -7.10722 -3.63764 
1358 1 4.60706 -6.09348 -3.5882 
440 1 4.14782 7.09995 -4.40207 
2315 1 3.59637 -6.73673 -3.25868 
144 1 5.74277 -6.33062 -3.70264 
2825 2 4.77547 -5.75461 -4.66781 
2545 1 5.05676 -5.86865 -2.91618 
538 1 6.22608 -7.13044 -4.68831 
168 1 6.29182 -6.30184 -4.56311 
2166 1 -6.73895 -6.01591 -2.99669 
1013 1 -6.71766 -5.30853 -3.90769 
2896 2 -5.92025 -4.45216 -3.26967 
3375 2 -5.74943 -5.4878 -3.51386 
2318 1 -4.91434 -4.91096 -4.3716 
278 1 -4.94127 -5.09139 -2.96688 
3413 2 -3.6645 -5.80777 -4.26393 
3562 2 -3.77828 -5.09161 -4.05864 
2453 1 -2.46949 -5.38839 -3.96307 
104 1 -2.84799 -4.68489 -4.23892 
2439 1 -2.98864 -5.69566 -3.2431 
2033 1 -1.63876 -5.8606 -3.75677 
1143 1 -1.75301 -5.0671 -3.41511 
180 1 -1.08883 -4.58507 -2.96275 
1127 1 -0.888783 -5.50369 -3.17027 
635 1 0.0186231 -5.71523 -4.47146 
1799 1 0.284775 -4.93445 -4.3052 
1431 1 -0.560552 -5.03977 -3.84607 
2969 2 0.373759 -5.76108 -3.14035 
27 1 0.859199 -5.40503 -4.09779 
632 1 1.3067 -5.00179 -3.47943 
1511 1 1.45824 -5.97706 -3.65421 
3379 2 2.48268 -5.3299 -3.77319 
3230 2 2.4568 -4.56559 -3.71574 
126 1 3.80134 -5.73674 -3.8286 
1653 1 3.56209 -5.00461 -4.23733 
1878 1 4.19544 -5.26919 -3.19376 
3340 2 4.72062 -5.07283 -4.37104 
2695 1 5.46468 -5.39889 -3.56471 
463 1 4.86994 -4.75739 -3.21386 
1493 1 5.91458 -4.64175 -4.08107 
2029 1 6.85884 -5.81733 -3.91775 
1994 1 6.76581 -4.68819 -3.80712 
2721 1 7.12656 -3.95493 -3.81519 
874 1 -5.68001 -3.5385 -4.40652 
3286 2 -6.27268 -3.77573 -3.2118 
2309 1 -5.75814 -4.46312 -4.48025 
1733 1 -4.19809 -4.47032 -5.03849 
1609 1 -4.81039 -3.91771 -4.63927 
2459 1 -4.88259 -4.42988 -3.63373 
935 1 -5.1365 -3.47041 -3.77202 
3536 2 -3.77713 -4.35503 -3.93067 
3376 2 -4.03623 -3.60155 -3.91927 
909 1 -2.9306 -3.71778 -4.10881 
458 1 -2.31991 -4.38221 -3.56872 
3285 2 -1.72369 -4.07117 -4.5434 
954 1 -0.893251 -4.04417 -3.66927 
2298 1 0.421336 -4.15054 -3.96956 
1028 1 -0.685411 -3.55725 -4.66613 
1843 1 0.82035 -3.24132 -3.89767 
1237 1 2.07464 -3.49843 -4.52047 
393 1 1.19875 -4.1739 -4.11334 
2145 1 3.31543 -3.74047 -4.40363 
3015 2 2.04614 -3.84907 -3.42356 
3244 2 4.62339 -4.35106 -4.23953 
2857 2 4.27227 -3.63202 -4.15502 
999 1 3.59261 -4.46484 -3.61867 
303 1 3.23539 -3.59574 -3.48619 
1034 1 5.56488 -3.74291 -4.36046 
2239 1 5.4024 -4.05265 -3.53228 
1496 1 5.6216 -3.2286 -3.62117 
587 1 -7.1206 -5.05409 -3.08092 
335 1 6.28014 -3.90611 -3.70569 
831 1 -7.15925 -2.90497 -3.82198 
1325 1 -6.47371 -3.4419 -4.24913 
1144 1 -5.88643 -2.68015 -3.88631 
2054 1 -6.48472 -2.39225 -4.39069 
2388 1 -4.79863 -2.86759 -4.35543 
572 1 -5.22016 -2.72719 -3.14217 
871 1 -3.3724 -2.05377 -4.41255 
3083 2 -4.18031 -2.83447 -3.46077 
3229 2 -4.21602 -2.02043 -3.54511 
2524 1 -2.50318 -3.49825 -3.46808 
1979 1 -2.92876 -3.19034 -4.94115 
647 1 -2.95469 -2.69836 -3.61354 
3198 2 -2.17271 -2.38124 -4.25908 
2916 2 -1.86873 -3.20541 -4.35461 
1266 1 -0.858426 -2.56371 -3.77047 
2044 1 -1.08272 -2.65335 -4.92414 
728 1 -1.34118 -2.89857 -3.39928 
984 1 -0.266998 -3.30304 -3.80045 
202 1 1.32962 -2.12558 -4.5454 
1069 1 1.39573 -3.03389 -4.61965 
858 1 0.952501 -2.10166 -3.8507 
3320 2 2.00381 -3.03143 -3.49419 
607 1 0.828273 -2.74389 -2.99595 
480 1 2.93293 -2.95889 -4.12407 
2306 1 2.0556 -2.50864 -4.33958 
535 1 3.33274 -2.82429 -3.00663 
169 1 2.91875 -2.22839 -3.53028 
110 1 3.01516 -2.08823 -4.43326 
3353 2 4.10839 -2.92087 -3.85442 
3134 2 3.99446 -2.06476 -3.77824 
1703 1 5.28759 -2.61877 -4.35153 
2211 1 4.90386 -1.84233 -4.11929 
844 1 5.45056 -1.90943 -3.39759 
3116 2 6.27894 -1.99677 -4.31024 
423 1 6.15925 -2.34417 -3.30756 
1449 1 7.11684 -2.183 -3.62164 
1707 1 -6.19203 -1.68153 -3.82701 
1575 1 -6.05125 -0.828924 -3.60536 
1301 1 -6.91975 -1.4964 -4.03246 
808 1 -4.68961 -1.52703 -4.66327 
1446 1 -5.3092 -2.04198 -3.95005 
960 1 -5.25716 -1.00164 -3.96682 
1835 1 -4.11188 -0.556918 -4.11672 
2674 1 -3.76526 -1.31963 -4.49817 
2465 1 -3.34866 -1.07638 -3.71175 
2638 1 -3.23391 -1.91782 -3.46326 
2748 2 -2.37359 -1.10682 -3.9013 
2395 1 -0.955541 -1.83861 -4.07794 
2766 2 -1.94696 -1.74918 -3.91291 
1971 1 -1.02598 -0.913189 -3.52757 
2542 1 0.158856 -2.50197 -3.40763 
3585 2 0.160436 -1.10254 -4.52448 
922 1 2.0845 -1.67937 -4.20638 
1969 1 1.18963 -1.10367 -3.88753 
876 1 2.86131 -1.45695 -3.10493 
236 1 3.08038 -1.27657 -4.38353 
2013 1 2.56109 -1.10469 -3.70185 
2914 2 3.89602 -1.2552 -3.60136 
1648 1 4.40713 -0.848096 -4.4665 
148 1 5.09669 -1.32036 -4.69158 
2299 1 5.01639 -1.00786 -3.64072 
2856 2 6.08731 -1.14063 -4.16558 
2902 2 6.06349 -0.353928 -3.9214 
523 1 7.02103 -1.08956 -3.46364 
3186 2 -6.20834 -0.127571 -4.52687 
319 1 -6.73409 -0.342194 -3.64169 
52 1 -5.59416 -0.212139 -2.90229 
1551 1 -5.30379 -0.25185 -3.80272 
1627 1 -5.47031 0.53215 -3.49549 
1343 1 -4.7039 0.3012 -4.07272 
1316 1 -3.52231 0.0683882 -4.07847 
111 1 -3.05833 -0.367589 -4.59101 
2789 2 -2.24314 -0.31453 -3.77587 
3490 2 -2.58558 0.468603 -3.5911 
1074 1 -0.970243 -0.996742 -4.42021 
1268 1 -1.29734 -0.0131203 -4.17859 
3500 2 -0.0307553 -0.362423 -4.22054 
3555 2 -0.157074 0.332715 -4.16411 
2237 1 1.97321 -0.472859 -3.81096 
692 1 1.47812 0.434244 -3.74644 
1706 1 0.797563 -0.31929 -3.38171 
446 1 0.924602 0.797161 -4.30389 
506 1 2.3704 0.51861 -3.84088 
76 1 2.98651 -0.322828 -3.85146 
1337 1 3.06671 0.203141 -4.45821 
296 1 3.98879 1.15994 -4.22077 
455 1 4.01646 0.26957 -4.28797 
1548 1 4.8704 -0.148789 -3.66492 
840 1 4.68233 0.581977 -3.39768 
2819 2 5.80604 0.404085 -3.69064 
2297 1 7.14714 -0.726966 -4.38366 
3263 2 -6.16412 0.590242 -4.3689 
3260 2 -6.48862 1.23677 -4.15452 
2278 1 -4.64743 1.41889 -3.61896 
1793 1 -5.58756 1.37307 -3.44971 
2311 1 -5.49073 1.89464 -4.30584 
2177 1 -2.96806 0.966174 -4.49449 
2423 1 -3.98682 0.770558 -3.78796 
882 1 -3.54973 1.48738 -3.92581 
2605 1 -1.80818 0.642397 -4.54962 
3588 2 -2.61006 1.31422 -3.42475 
1910 1 -2.06208 1.4772 -4.38016 
3120 2 -2.82112 1.9063 -3.09055 
1775 1 -1.14373 1.96184 -4.90083 
2241 1 -1.52086 0.884392 -3.71347 
14 1 -1.60607 1.72706 -3.78055 
549 1 0.0646251 1.29272 -2.95543 
2950 2 -0.302412 1.1402 -3.9495 
3196 2 -0.614714 2.05348 -3.79002 
3241 2 1.75602 1.6486 -4.6561 
2 1 1.57135 1.43359 -3.41937 
2328 1 0.776371 1.61245 -3.79575 
620 1 1.4518 2.2624 -3.24 
254 1 2.32982 1.41154 -3.64068 
2084 1 3.70639 1.93854 -4.0022 
583 1 3.14488 1.00053 -4.26706 
1364 1 4.52745 1.30404 -3.51075 
3209 2 5.71353 1.16998 -3.73875 
3369 2 5.64122 1.88238 -3.50822 
2637 1 4.85021 1.59411 -4.40191 
34 1 6.87355 0.524103 -4.17557 
829 1 7.14268 0.490986 -3.4028 
2440 1 6.7332 1.29562 -3.71991 
3033 2 -6.68179 1.99022 -4.13644 
2751 2 -6.80939 2.75873 -4.10434 
2061 1 -5.6417 3.04981 -4.27474 
412 1 -5.72686 2.40199 -3.45776 
500 1 -4.83487 2.27329 -3.63113 
1483 1 -3.39412 2.62781 -4.37575 
2529 1 -4.00082 2.26555 -3.68699 
2490 1 -3.28609 3.36274 -4.29166 
1002 1 -1.96307 2.45038 -4.2178 
857 1 -2.85417 2.1518 -4.22291 
2647 1 -1.83759 3.42477 -4.26481 
2860 2 -0.908603 2.8843 -3.65608 
1763 1 0.255192 2.54776 -4.36056 
301 1 0.174127 3.19636 -3.83034 
30 1 0.441804 2.25751 -3.3188 
1012 1 0.995089 2.99404 -3.22049 
3063 2 1.40205 2.3679 -4.39811 
3479 2 1.25187 3.39536 -4.39949 
1614 1 2.88022 1.83358 -4.36049 
946 1 3.17505 2.65028 -4.10581 
441 1 2.26503 2.48836 -3.66933 