ITEM: TIMESTEP
17800
ITEM: NUMBER OF ATOMS
3594
ITEM: BOX BOUNDS pp pp pp
-7.1983130606580872e+00 7.1983130606580872e+00
-7.1983130606580872e+00 7.1983130606580872e+00
-7.1983130606580872e+00 7.1983130606580872e+00
ITEM: ATOMS id type x y z 
2051 1 -6.05051 7.04426 -6.28739 
1437 1 -5.58052 6.78555 -6.98072 
1610 1 -5.74918 -6.72201 -6.87064 
3520 2 -4.95357 -6.71239 -6.18744 
262 1 -4.33214 -6.47911 -7.00061 
1654 1 -3.81913 -6.58863 -6.28807 
601 1 -4.9703 -6.01244 -7.04014 
2727 1 -3.91768 -5.69697 -6.1995 
2944 2 -2.9044 -6.48352 -6.53997 
1210 1 -1.47881 -6.21439 -6.44834 
448 1 -1.60731 -6.95114 7.0275 
3368 2 -0.41495 -6.16508 6.99937 
2018 1 -1.39096 6.91246 -6.39775 
1088 1 0.901952 -5.72639 -6.70034 
1333 1 0.544398 -6.93565 -6.64319 
2415 1 1.56059 7.08787 -6.89653 
1073 1 1.31373 -6.52309 -6.70074 
686 1 2.41662 7.17738 -6.56899 
2623 1 2.13934 -5.94999 -6.76893 
2957 2 2.92574 -5.40802 -6.07998 
245 1 1.98111 -6.04276 -5.9828 
3442 2 3.18652 -6.10377 -6.01444 
645 1 4.28808 -5.81756 -6.44335 
3208 2 5.53571 -6.43537 -6.74103 
2787 2 5.83254 7.09949 -6.97847 
1263 1 -6.81016 -7.06408 -6.53763 
2045 1 -6.84164 -6.17713 -6.26599 
1246 1 -5.92495 -6.68246 -5.84219 
1282 1 -6.52613 -4.78411 -6.13237 
3366 2 -6.79461 -5.70012 7.06471 
2122 1 -5.06252 -5.14768 -6.87154 
3325 2 -5.39443 -5.2566 -5.80599 
318 1 -5.99059 -5.89309 -6.47542 
977 1 -4.16942 -5.09455 -5.72046 
1184 1 -4.38348 -4.558 -6.54912 
1087 1 -4.81226 -3.47085 -6.36883 
3574 2 -3.07048 -5.55719 -6.51458 
2981 2 -3.00313 -4.83577 -6.41842 
995 1 -2.0581 -4.49952 -6.64827 
2543 1 -0.508339 -5.59695 -6.0377 
3019 2 -1.01984 -5.64231 -7.14337 
3484 2 -0.725984 -4.96743 -7.10999 
722 1 -0.582239 -4.34893 -5.92862 
527 1 0.224209 -6.1212 -6.30256 
579 1 0.123199 -5.13531 -6.46231 
2368 1 0.321378 -5.28355 7.15172 
1905 1 1.62796 -5.26671 -6.4015 
1425 1 1.84697 -4.58801 -5.44432 
2933 2 2.89847 -4.71145 -5.83572 
2379 1 2.19837 -5.07164 -7.00634 
1215 1 4.2118 -4.73168 -6.18326 
1770 1 2.87554 -4.96546 7.1515 
2590 1 3.421 -5.69239 7.1597 
638 1 3.92761 -5.22498 -6.81616 
2812 2 5.25957 -5.51695 -6.75891 
3212 2 5.24046 -4.79133 -6.58949 
1526 1 6.06753 -5.90527 -5.88432 
639 1 -7.02163 -5.39537 -6.26268 
10 1 6.42642 -5.3727 6.91769 
1362 1 6.50672 -5.27762 -6.50845 
2479 1 6.2708 -4.44617 6.45221 
304 1 6.97053 -4.39968 -6.11119 
3495 2 -6.77566 -4.90437 -7.14119 
1459 1 -6.201 -4.03227 -6.29702 
923 1 -5.26191 -4.25508 -6.71788 
1918 1 -5.89444 -4.98319 -6.81861 
3041 2 -3.46696 -3.29018 -5.90772 
386 1 -3.25792 -3.86606 7.12427 
3061 2 -3.31692 -4.23172 -6.04821 
37 1 -3.0641 -3.05407 -6.92961 
128 1 -2.45168 -3.7742 -6.88372 
2808 2 -1.06168 -4.24919 -6.87018 
842 1 0.200648 -4.15023 -6.15035 
2105 1 -0.342033 -3.45039 -5.80562 
2589 1 -0.153111 -3.42598 -6.64601 
40 1 1.33055 -3.91338 -6.04678 
502 1 0.719144 -3.32343 -6.20506 
1738 1 1.28826 -2.2173 -5.87118 
2599 1 2.04942 -3.49295 -6.5383 
985 1 3.03202 -3.56909 -7.0053 
1168 1 1.84654 -4.35343 -6.38845 
2407 1 3.35645 -4.4636 -6.93492 
388 1 3.85294 -3.09601 -5.8315 
3266 2 5.11018 -3.99116 -6.45534 
2767 2 4.78611 -3.32304 -6.50327 
3029 2 7.19776 -4.18557 -7.13409 
1372 1 6.01441 -3.6135 -6.87617 
2015 1 6.22213 -4.54159 -6.9775 
1354 1 -6.43914 -2.99017 -6.07822 
1078 1 -6.04689 -3.48242 -6.95575 
1671 1 -4.58573 -3.06342 -5.59707 
1581 1 -5.44964 -2.96352 -6.36796 
2699 1 -3.97384 -3.67917 -6.76099 
1445 1 -4.38727 -2.5854 -6.4032 
1370 1 -3.94326 -2.98125 -7.17417 
2289 1 -2.54883 -2.36926 -6.25778 
821 1 -2.24062 -3.71494 -6.04822 
433 1 -2.41638 -1.98275 -7.11034 
3332 2 -1.22431 -3.55359 -6.58759 
3234 2 -1.3237 -2.71836 -6.51894 
1094 1 -0.0988947 -2.95623 7.03441 
1767 1 -0.134076 -2.56647 -6.53039 
250 1 0.437197 -2.50915 -5.89561 
1946 1 -0.443165 -2.06176 7.09228 
2804 2 0.75887 -1.75945 -6.93069 
3347 2 0.875818 -2.48752 -7.06595 
2178 1 1.92435 -2.33063 -6.52263 
1834 1 2.79659 -2.61611 -6.58344 
1976 1 3.75625 -3.41045 -6.75532 
2500 1 3.98155 -2.77193 7.0896 
1859 1 3.54318 -2.59213 -6.43436 
3550 2 4.89075 -2.78542 -6.05892 
2360 1 5.84924 -2.77535 -6.33644 
2975 2 7.12993 -3.41596 -7.10406 
802 1 6.25506 -3.94572 -6.19493 
3126 2 6.95927 -2.81029 -6.85728 
670 1 -6.50372 -2.03782 -6.31818 
2126 1 -6.77649 -1.57372 7.16595 
194 1 -6.38153 -0.582564 -5.85444 
1392 1 -5.29524 -2.10264 -6.09441 
2578 1 -4.39301 -1.87562 -7.02733 
395 1 -3.33558 -2.14067 -6.7876 
2677 1 -4.77025 -0.974424 6.76203 
900 1 -2.7451 -1.30333 -6.8721 
902 1 -2.57275 -0.164575 -7.00586 
174 1 -3.19702 -0.544545 -6.39576 
3105 2 -1.59113 -1.81093 -6.36593 
3200 2 -1.63329 -1.15684 -6.22148 
2108 1 -0.44596 -1.59059 -6.65463 
84 1 1.40013 -1.39178 -5.95199 
3151 2 0.658321 -0.955644 -6.7385 
1938 1 1.60928 -0.537714 6.79242 
42 1 1.73944 -0.707361 -6.76971 
3088 2 0.537939 -0.188114 -6.56597 
2558 1 2.90099 -1.6396 -6.45933 
366 1 2.36835 -0.959227 -6.28373 
3195 2 2.84416 -0.39907 7.06317 
1374 1 2.00793 -1.66165 -7.0051 
2617 1 3.90739 -1.94164 -6.95324 
1111 1 3.67423 -1.12181 -6.64597 
2995 2 4.51432 -1.20141 -6.02326 
2972 2 4.63269 -2.12377 -6.19089 
377 1 5.71132 -1.82875 -6.27331 
2477 1 5.4671 -0.628921 -6.77365 
1414 1 5.6933 -1.05531 -5.94643 
2183 1 5.49309 -1.99334 -6.99979 
3087 2 6.81336 -2.04622 -6.70865 
1806 1 5.96321 -1.39055 7.16788 
2510 1 -6.84552 -0.613563 -6.70965 
253 1 -7.03873 -0.231907 -5.40433 
3097 2 -5.72406 -0.392707 -6.8503 
3127 2 -5.75382 0.431331 -6.43249 
1457 1 -3.74836 -1.30366 -6.64371 
2300 1 -4.50679 -0.56848 -6.07908 
1815 1 -3.72571 -0.0160975 -6.34008 
1027 1 -4.62019 0.262101 -6.92709 
1745 1 -2.64806 0.53447 -6.58645 
1993 1 -1.07733 -0.792527 7.14327 
1265 1 -1.63998 -0.175894 -7.13185 
75 1 -0.659546 0.236003 -6.18844 
28 1 -0.439861 -0.690079 -6.63089 
3311 2 0.323779 0.536194 -6.45161 
2928 2 0.228153 1.26084 -6.37556 
603 1 -0.304773 -0.038187 7.14835 
2329 1 -0.96009 0.26707 -6.92946 
1241 1 1.50059 0.323063 -6.88573 
1713 1 1.16033 0.711314 -5.68189 
2960 2 2.59251 0.447884 -7.03016 
530 1 2.55382 0.0533845 -6.02413 
2535 1 3.37955 0.542214 -6.34569 
1997 1 1.41655 1.62865 -5.66298 
1698 1 3.3677 -0.324336 -6.31134 
1895 1 4.30072 0.843315 -6.60469 
565 1 4.78511 -0.0135434 -6.69421 
263 1 6.09064 -0.242902 7.18866 
2072 1 5.45739 0.557152 -6.73393 
2840 2 6.63195 -1.23961 -6.62769 
2797 2 6.61102 -0.438944 -6.20735 
2151 1 -6.53698 0.954396 -5.65747 
3140 2 -5.96984 1.97229 -6.36827 
571 1 -6.99947 0.657326 -6.66347 
1229 1 -6.69824 1.86827 -7.18157 
3007 2 -5.5594 1.31616 -6.65667 
2386 1 -4.58913 1.43556 -6.94643 
2180 1 -4.13257 0.728007 -6.24478 
499 1 -4.98982 1.19484 -5.80447 
2560 1 -4.30689 1.96188 -6.12448 
3148 2 -3.56131 1.3312 7.05255 
743 1 -3.11407 0.923307 -5.91962 
1238 1 -2.73839 1.9398 -6.20223 
1116 1 -2.4677 1.33384 -6.98677 
337 1 -1.64236 0.843566 -6.82389 
1978 1 -0.764211 2.00367 -6.90586 
1353 1 -1.84851 1.73044 -6.65373 
3078 2 0.310149 1.97813 -6.19494 
1368 1 1.39711 2.32019 -6.36231 
171 1 1.28765 1.11869 -6.58485 
221 1 1.44832 2.55551 -5.56039 
3459 2 2.41234 1.14425 -6.97064 
3393 2 2.25922 1.66742 -6.47341 
850 1 4.847 1.36642 -6.13086 
1185 1 3.47447 1.38691 -6.43859 
2380 1 3.41389 1.64739 7.14621 
2086 1 6.35238 0.610031 -7.18367 
1927 1 5.44716 1.46138 -6.68056 
3135 2 6.37947 0.333445 -6.00398 
1684 1 -6.94079 1.41735 -6.33661 
3465 2 -6.19003 2.69797 -6.31975 
141 1 -4.93068 2.38623 -6.62832 
2200 1 -4.98618 3.53308 -5.97101 
1335 1 -4.52683 2.78439 -5.80023 
3093 2 -3.73548 2.11803 7.13026 
2783 2 -3.73288 2.61144 -6.81907 
732 1 -2.75307 3.14229 -6.73572 
561 1 -3.03994 2.76792 -5.95876 
1894 1 -2.20083 2.48909 -6.48753 
2508 1 -1.16908 2.59374 -6.52287 
1744 1 -1.27299 2.99892 -5.70943 
3444 2 -0.0848716 2.70662 -6.09918 
2000 1 0.61171 2.741 -7.09894 
1098 1 0.845261 3.20249 -6.43405 
3478 2 2.12743 3.19857 -6.65333 
3417 2 2.40972 2.4902 -6.69434 
50 1 4.20658 1.95451 -6.12109 
1889 1 3.07888 2.72934 -5.7384 
2765 2 4.46297 3.27967 -6.89562 
1113 1 4.0383 2.85108 -5.86732 
2276 1 3.3927 2.33311 -6.39601 
889 1 5.93231 1.52018 6.98709 
1515 1 5.24361 2.52903 -6.41023 
1584 1 6.8164 3.26584 -6.20248 
122 1 7.1136 2.65145 -6.798 
131 1 6.2437 2.16457 -6.84497 
2736 2 -6.32067 3.3715 -6.02585 
1760 1 7.15509 3.90007 -6.91804 
3238 2 -6.67928 4.01301 -5.96212 
1879 1 -6.36746 4.55302 -7.04663 
1318 1 -6.09776 3.62316 -7.11242 
3408 2 -3.99962 3.46053 -6.7634 
3411 2 -4.29392 4.12393 -6.58555 
343 1 -3.16329 3.90828 -7.04493 
1030 1 -2.98035 3.21115 6.75084 
715 1 -2.45713 4.17444 -6.09786 
1932 1 -0.170634 2.48245 7.07163 
989 1 -1.94943 3.41425 -6.28157 
1499 1 -1.10286 3.85097 -6.31608 
883 1 -1.60252 4.06877 -5.60491 
474 1 0.0593328 3.61115 -6.93715 
1016 1 1.27895 3.3358 7.19328 
3138 2 1.61626 4.43628 -6.01498 
849 1 0.619927 5.09748 -6.22843 
588 1 2.75026 3.44787 -5.54929 
3466 2 1.88478 3.77895 -6.17977 
614 1 3.41679 3.26297 -6.5869 
1066 1 2.98712 3.98694 -6.34861 
3551 2 4.12804 4.21923 -6.80065 
2305 1 5.40324 3.48378 -6.3371 
2066 1 4.69673 3.23667 -5.74322 
404 1 5.6475 4.61055 -6.31279 
2594 1 6.14734 3.03274 -6.85368 
248 1 6.1624 3.96133 -6.6456 
577 1 7.10413 4.86469 -6.961 
66 1 -6.15819 5.55631 -6.56927 
2396 1 -5.76772 5.69177 -5.74429 
1669 1 -5.63036 4.9246 -6.75555 
3471 2 -4.21305 4.79717 -6.33037 
233 1 -4.09802 6.00606 7.17117 
59 1 -3.30458 4.86588 -6.76776 
2832 2 -2.35895 5.55307 -7.03762 
287 1 -2.09651 5.16964 -5.67641 
597 1 -1.10821 5.35275 7.02447 
2839 2 -2.06104 4.83185 -6.96814 
1652 1 -1.17662 5.56147 -6.56141 
1253 1 -0.796106 4.76896 -6.7942 
2630 1 -0.250015 5.46974 -6.46278 
2626 1 0.0519401 4.49119 -6.62259 
2429 1 0.708843 5.87698 -6.96546 
2831 2 1.70019 5.27511 -6.17206 
1141 1 0.589515 5.69833 -5.64108 
1923 1 2.79861 4.73446 -6.65951 
295 1 3.20436 4.7358 -5.85318 
3223 2 3.79483 5.11615 -6.69837 
2790 2 3.80771 5.98582 -6.64165 
1247 1 4.83598 5.20194 -6.06265 
2160 1 4.76141 5.50765 7.09072 
112 1 6.66711 4.61639 -6.26713 
795 1 5.97909 5.28733 -6.06804 
1530 1 6.91737 5.64989 -6.57967 
2905 2 6.03988 5.5444 -7.1241 
1954 1 6.98584 6.52806 -6.26401 
558 1 -6.48944 6.36437 -6.72386 
1004 1 -5.62181 6.30377 -6.3499 
3463 2 -4.62658 5.36278 -6.30393 
1415 1 -4.95168 -7.16254 7.07096 
3150 2 -4.60528 6.21549 -6.19279 
2002 1 -3.46174 6.65341 7.07615 
3454 2 -2.43817 6.30603 -6.87516 
3268 2 -2.47732 7.12856 -6.73998 
345 1 -1.3948 6.36117 -7.07534 
658 1 -1.94641 -7.11244 -5.75898 
1394 1 -1.61967 5.98867 -6.00839 
741 1 -1.35098 5.87795 6.34203 
1702 1 -0.572828 6.34609 -6.41044 
798 1 -0.137942 7.03534 -6.11995 
1709 1 0.257178 6.12287 -6.2116 
2322 1 0.577916 6.74378 -6.76388 
725 1 1.40494 6.12826 7.04573 
2899 2 1.47648 6.03492 -6.06549 
2669 1 3.62721 5.58094 -5.61571 
3569 2 3.67333 6.91107 -6.41328 
3587 2 3.30302 -6.72344 -6.47103 
244 1 6.23129 6.20699 -5.91385 
805 1 4.92153 6.19323 -6.69362 
1295 1 5.36929 5.8758 -6.0789 
2088 1 5.08205 4.91111 -6.82026 
2136 1 6.60906 6.70232 -5.15616 
3539 2 6.01419 6.34877 -7.07511 
2023 1 -5.49981 -7.13429 -5.16621 
1893 1 -4.72707 6.661 -4.99032 
2747 2 -6.92423 7.17913 -5.41415 
3477 2 -4.69924 6.97609 -6.13089 
1772 1 -4.19598 7.02144 -4.17246 
1481 1 -4.96331 -6.54176 -4.87333 
1148 1 -4.74376 -5.88705 -4.15088 
1725 1 -3.69898 6.47562 -5.34596 
1344 1 -3.84175 -6.20992 -5.50695 
1227 1 -3.63418 6.88939 -6.46191 
1691 1 -3.71551 -7.08231 -5.54315 
1252 1 -2.89641 -6.81091 -5.49856 
520 1 -2.08519 -6.24085 -5.88813 
3594 2 -1.0489 -6.24118 -5.24781 
1567 1 0.317496 6.75175 -5.31585 
1881 1 -0.0476902 -6.57442 -5.57829 
3128 2 1.1529 -6.72741 -5.58633 
2826 2 0.90417 -5.888 -5.49842 
1249 1 1.92958 -6.61949 -4.92596 
862 1 3.60222 -6.74527 -5.14566 
1992 1 4.34997 7.17209 -5.50413 
224 1 4.03471 -5.95757 -5.32397 
1689 1 2.76469 -7.04141 -5.24668 
1175 1 2.26116 -6.8136 -5.89637 
281 1 4.49849 -6.5315 -5.98502 
209 1 6.10234 -6.83782 -5.53488 
3290 2 4.89969 -6.18136 -4.76453 
329 1 4.51028 -6.82337 -6.93194 
3487 2 7.14321 -6.35324 -5.09731 
317 1 6.63732 -6.9027 -6.22663 
1000 1 5.91053 -6.16644 -5.05057 
538 1 6.20469 -6.80049 -4.6097 
355 1 -6.39098 -5.6927 -5.45454 
1718 1 -6.53392 -5.9683 -4.40218 
3416 2 -5.01488 -5.93568 -5.91809 
2912 2 -5.32341 -4.46726 -5.65826 
1733 1 -4.43765 -4.53457 -4.9481 
1361 1 -4.47233 -5.63895 -4.99825 
1885 1 -4.16136 -6.85467 -4.90526 
2350 1 -2.65155 -5.09156 -4.8563 
1582 1 -1.34955 -5.23631 -6.14898 
1836 1 -2.26114 -5.30971 -5.66719 
2453 1 -2.94808 -5.89712 -5.41478 
1643 1 -0.707117 -6.55055 -6.25164 
3322 2 -1.36542 -5.64578 -4.97994 
3480 2 -1.33357 -4.99144 -4.75083 
2491 1 -0.255115 -5.01512 -5.60202 
15 1 -0.0742085 -5.32788 -4.30997 
3068 2 0.843578 -5.11775 -5.41978 
2256 1 2.14145 -5.58844 -5.25706 
1998 1 1.62259 -5.85734 -4.55816 
1075 1 3.23104 -5.26315 -4.7895 
1695 1 3.88478 -3.98479 -6.19574 
2462 1 4.90779 -5.65634 -5.7578 
628 1 5.25374 -6.64975 -5.77305 
589 1 4.80988 -4.71355 -5.38719 
1320 1 5.58907 -4.72429 -4.78292 
1724 1 5.54107 -5.23997 -5.39491 
2825 2 4.64203 -5.5057 -4.43887 
2828 2 6.83368 -5.57995 -5.25315 
85 1 5.97709 -5.35626 -4.56994 
2106 1 -6.5921 -4.69406 -5.35317 
1325 1 -7.01546 -3.61344 -5.98879 
2737 2 -5.51231 -3.73161 -5.34766 
1609 1 -4.99435 -4.00701 -4.35632 
1784 1 -4.35244 -3.93756 -5.817 
1071 1 -4.36459 -3.48385 -4.76088 
2248 1 -3.35216 -5.14052 -5.2709 
2426 1 -1.66638 -4.45297 -5.85194 
909 1 -2.32413 -4.45653 -5.43402 
1979 1 -2.60333 -3.57909 -5.10823 
139 1 -0.803632 -3.09152 -4.93058 
2238 1 -1.06033 -4.0548 -5.41811 
1722 1 -0.39124 -4.61076 -4.91021 
3227 2 0.525404 -3.59428 -5.15577 
799 1 1.76309 -3.80177 -5.35658 
2113 1 2.56449 -4.6264 -4.75739 
2768 2 0.593902 -4.44282 -5.04773 
1611 1 1.56521 -3.02046 -6.0287 
3249 2 2.85738 -3.98445 -6.01742 
891 1 2.31822 -3.65911 -4.72701 
3014 2 2.71837 -3.35665 -5.68086 
1863 1 2.95887 -3.41399 -4.21851 
2150 1 4.15864 -5.25955 -5.68645 
1385 1 4.3419 -3.94866 -5.48292 
2145 1 3.47976 -3.73173 -5.00564 
2656 1 5.51435 -4.04282 -5.35384 
452 1 5.9742 -4.80215 -5.93661 
1034 1 5.59749 -3.96837 -4.29145 
3010 2 6.77191 -4.79848 -5.08497 
3080 2 6.49781 -4.09452 -4.87598 
351 1 -6.6633 -1.20042 -6.3653 
831 1 -6.91855 -2.89789 -5.1542 
1800 1 -4.63349 -2.20726 -5.37005 
2890 2 -5.58308 -2.95538 -5.21791 
2974 2 -5.97061 -2.1527 -5.15519 
1465 1 -3.50035 -4.39092 -5.10408 
477 1 -3.81583 -2.58555 -4.75456 
2869 2 -3.59925 -2.52994 -5.71499 
2844 2 -3.87798 -1.64593 -5.69507 
1790 1 -2.80055 -2.7841 -5.08633 
1953 1 -2.02544 -2.26799 -5.44285 
484 1 -2.25185 -2.97334 -5.74375 
2139 1 -1.52105 -3.28326 -5.52194 
2480 1 -1.23579 -2.431 -4.99853 
851 1 -0.538123 -2.47654 -5.70407 
3430 2 0.39227 -2.98973 -4.80448 
3354 2 0.151085 -2.23137 -4.90095 
2187 1 0.82134 -1.43989 -5.38275 
247 1 1.41934 -2.72626 -5.05005 
2830 2 2.57087 -2.5106 -5.49187 
3356 2 2.31679 -1.78979 -5.47508 
480 1 3.27865 -2.43531 -4.80131 
1313 1 3.99124 -2.93015 -5.11728 
190 1 4.9328 -3.47483 -5.23078 
1472 1 3.40651 -1.99075 -5.8324 
153 1 4.74743 -2.66039 -4.94641 
72 1 5.37357 -3.18865 -4.48769 
734 1 5.81448 -3.24462 -5.74085 
659 1 6.67934 -3.0806 -5.88994 
1207 1 6.42668 -2.2285 -5.56846 
720 1 7.16287 -1.36413 -5.65281 
2993 2 -6.05856 -1.34119 -4.97799 
3267 2 -6.13489 -0.729432 -4.65817 
83 1 -4.76183 -1.33005 -6.34476 
1340 1 -5.79413 -1.47047 -6.07315 
56 1 -4.9624 -1.43615 -5.14524 
3543 2 -3.79439 -0.919415 -5.39152 
2718 1 -2.84266 -1.69218 -5.88173 
1928 1 -3.05676 -1.87408 -4.67675 
1380 1 -2.38508 -1.53002 -5.05032 
1057 1 -0.654589 -1.6074 -5.62039 
1074 1 -1.3348 -1.59897 -5.06892 
1837 1 0.118016 -1.58758 -6.03052 
925 1 1.27355 -0.621036 -5.65987 
175 1 1.49057 0.0836733 -6.05502 
1777 1 0.237237 -0.716932 -5.53354 
3557 2 2.30384 -0.992766 -5.2016 
3449 2 2.09532 -0.287313 -4.94164 
110 1 3.94223 -2.07259 -5.17427 
2336 1 4.24731 -1.16887 -4.83463 
859 1 3.32886 -0.950882 -5.64898 
2352 1 5.59632 -2.29102 -5.35981 
1830 1 5.40406 -0.571154 -5.0382 
656 1 5.48312 -1.40645 -5.192 
148 1 4.75204 -1.83599 -4.85344 
346 1 6.4028 -1.39549 -5.40343 
2297 1 6.32737 -0.476622 -5.15664 
1145 1 7.08132 -0.933215 -4.79161 
3186 2 -6.21533 0.0577397 -4.57316 
2132 1 -4.7943 -0.702471 -4.52583 
2641 1 -5.34278 -0.619273 -5.80678 
90 1 -4.81923 0.281587 -5.88642 
1151 1 -5.81193 0.100056 -5.54353 
408 1 -5.2429 0.0167292 -4.95571 
3256 2 -4.19623 -0.179744 -5.04829 
3144 2 -3.90921 0.520379 -5.16844 
2077 1 -2.0461 -0.790055 -4.96446 
827 1 -2.74737 -0.887476 -5.73917 
969 1 -3.14542 -1.08937 -4.63976 
2605 1 -2.63191 -0.251298 -4.99224 
400 1 -1.24779 0.0651084 -5.1318 
2796 2 -1.83082 -0.422298 -6.02 
1880 1 -1.31199 1.00261 -4.75283 
1618 1 -0.735286 -0.742989 -5.60844 
1432 1 -0.18344 -0.0191836 -5.58448 
1890 1 0.642969 0.201827 -5.34254 
886 1 3.07522 0.471174 -4.76921 
3383 2 2.01406 0.427884 -4.65721 
2730 1 3.01467 0.84918 -5.63841 
236 1 3.21895 0.0476152 -5.47119 
2848 2 4.27965 0.300267 -5.57041 
3317 2 4.51281 -0.421207 -5.77195 
140 1 5.50758 -0.178127 -5.86803 
823 1 4.73811 0.397606 -4.56892 
1568 1 5.27468 0.617778 -5.78887 
1999 1 6.78082 0.0893235 -4.60446 
1402 1 7.15031 0.646145 -5.18297 
1575 1 -7.13942 -0.405301 -4.12882 
319 1 5.6338 0.36201 -5.03259 
1841 1 -6.71616 0.244247 -6.05728 
806 1 -6.64684 1.87587 -5.48019 
1369 1 -5.73836 1.12655 -5.35403 
443 1 -5.14953 2.12743 -5.59528 
1607 1 -5.33067 1.5987 -4.55712 
2320 1 -2.96306 1.27763 -5.20129 
3062 2 -4.24866 2.05793 -4.83393 
2861 2 -4.12447 1.31846 -5.04269 
580 1 -2.97184 0.135232 -5.62917 
2846 2 -2.09898 1.11071 -5.70038 
2208 1 -0.977184 1.35438 -6.31913 
2939 2 -1.89382 0.359042 -5.81566 
1775 1 -1.0189 1.99074 -4.74864 
867 1 -0.771759 1.20738 -5.40982 
1661 1 -0.0835321 1.87615 -5.02592 
2708 1 0.446393 1.90538 -4.14128 
2406 1 0.64685 1.40834 -5.1892 
1375 1 0.673597 2.61388 -5.09037 
970 1 2.03453 0.819968 -5.83326 
3443 2 1.63826 1.15815 -4.53176 
2575 1 2.89558 1.38668 -4.79702 
3364 2 4.10158 1.08115 -5.28571 
3388 2 3.85893 1.76708 -5.06833 
2068 1 5.04023 1.12488 -4.55513 
941 1 4.91141 2.17736 -4.7496 
2584 1 5.19341 1.51935 -5.23133 
3038 2 6.42231 1.13391 -5.91867 
2130 1 6.02525 1.8847 -4.64258 
1200 1 6.9439 1.7538 -5.08355 
2690 1 7.05326 2.24609 -6.02783 
1169 1 -6.02029 3.36479 -4.81467 
13 1 -6.68946 2.6337 -5.1529 
92 1 -5.87151 3.85896 -4.09418 
928 1 -5.87444 2.25528 -5.10811 
2845 2 -4.70339 2.74246 -4.61477 
2523 1 -3.78613 2.69673 -5.7012 
1965 1 -3.45453 1.99895 -5.5071 
3456 2 -4.46852 3.46991 -4.6245 
2037 1 -3.59343 1.51181 -6.22313 
3117 2 -1.99807 1.82859 -5.47623 
1933 1 -0.83301 1.96708 -5.72829 
2489 1 -1.30969 2.80531 -4.6204 
46 1 -0.304175 2.73644 -4.76244 
2813 2 -0.252381 3.49888 -5.76733 
1763 1 0.320594 3.35432 -4.93842 
2271 1 1.16629 3.3419 -5.49769 
673 1 2.23452 1.67323 -5.37355 
1286 1 3.07752 1.82693 -5.85405 
47 1 2.68387 2.24984 -4.81565 
785 1 2.31552 2.48508 -5.51566 
1644 1 2.56471 3.07085 -4.40938 
3433 2 3.90668 2.48786 -4.86598 
2327 1 4.86751 2.94564 -4.98544 
1883 1 4.83651 2.3579 -5.64773 
3060 2 6.10208 1.90922 -5.83252 
698 1 -6.80575 3.67352 -5.00458 
3414 2 6.06233 2.67904 -5.62554 
1466 1 6.76367 3.47657 -4.59231 
2541 1 7.09515 2.9065 -5.41373 
1939 1 7.16321 4.44215 -4.75455 
60 1 -6.18587 4.27891 -4.70212 
1060 1 -6.63428 5.06057 -4.54695 
822 1 -5.45143 3.20557 -5.3602 
2268 1 -5.50627 4.84455 -6.03264 
1833 1 -3.41231 4.45079 -5.6262 
1224 1 -3.10531 3.75979 -6.17567 
668 1 -4.59749 4.14001 -5.59221 
1543 1 -3.84606 3.67401 -5.64397 
2490 1 -3.48116 3.19059 -4.95006 
2945 2 -2.23363 2.70565 -5.21287 
2977 2 -2.45934 3.45107 -5.16708 
197 1 -0.696044 4.28651 -4.45086 
1056 1 -1.18013 3.7837 -4.93068 
2647 1 -1.60287 3.29332 -4.13245 
3378 2 -0.330612 4.31149 -5.69455 
1201 1 0.19035 4.56704 -3.41543 
353 1 -0.445089 3.47756 -4.61644 
2522 1 0.658626 3.98778 -5.97624 
894 1 0.909631 3.94122 -4.96559 
1639 1 2.06778 3.32038 -5.23137 
1089 1 0.25962 4.43256 -4.71443 
23 1 2.33984 4.82878 -4.843 
324 1 1.69699 4.09788 -5.01076 
268 1 3.59528 3.76733 -5.82935 
2894 2 3.5963 3.15934 -4.87838 
3013 2 3.67185 3.87443 -4.75442 
2092 1 4.7652 4.27919 -6.05635 
1398 1 4.71353 3.86367 -5.10104 
839 1 4.60261 4.62172 -4.53022 
115 1 6.67383 4.01837 -5.5015 
3298 2 5.82134 3.55783 -5.43118 
2546 1 6.29041 4.17045 -4.36313 
3045 2 -6.61175 4.73069 -5.7578 
3147 2 -6.77727 5.62801 -5.66005 
2573 1 -5.79353 4.82777 -5.12034 
297 1 -5.45923 4.07513 -5.42993 
2308 1 -5.01962 4.88916 -5.40756 
2376 1 -3.64667 5.39694 -5.64532 
803 1 -2.98011 5.08908 -6.00728 
1862 1 -4.22985 4.80517 -5.16164 
1140 1 -3.48193 5.64782 -6.80817 
2865 2 -2.58335 4.22396 -4.89482 
2326 1 -1.4436 4.79665 -6.0488 
1665 1 -1.51504 4.79511 -4.93274 
1577 1 -1.70333 5.73098 -4.86762 
3392 2 -0.59657 5.05443 -5.49197 
3207 2 -0.614841 5.79659 -5.39008 
1521 1 0.752896 4.72172 -5.39441 
586 1 1.44356 5.00894 -5.02295 
103 1 2.65147 4.36739 -5.46607 
2028 1 4.40388 5.42753 -5.11976 
372 1 2.67011 5.35556 -5.38263 
2414 1 4.30134 5.49449 -3.74118 
2231 1 4.25013 4.68065 -5.46846 
2814 2 3.39948 4.61833 -4.59837 
908 1 4.56464 5.90925 -4.36659 
2917 2 5.67415 4.39933 -5.2898 
2927 2 5.58758 5.13575 -5.00264 
1667 1 6.71611 4.97089 -5.44588 
2539 1 7.12996 5.72863 -4.67994 
2703 1 6.58177 5.05228 -4.39413 
2574 1 -5.9974 6.45232 -4.52453 
3330 2 -6.7577 6.36164 -5.50006 
1616 1 -5.61518 6.47657 -5.30821 
683 1 -5.92342 5.50156 -4.79009 
1490 1 -5.0232 5.78951 -5.25461 
1235 1 -4.11236 5.82199 -5.07759 
1396 1 -2.54824 5.90071 -5.71163 
964 1 -3.3514 6.0692 -6.16973 
1619 1 -2.77781 6.75953 -5.75614 
356 1 -2.056 7.07484 -4.52241 
786 1 -1.91334 6.53615 -5.32198 
3455 2 -0.996105 -7.02947 -5.11651 
3018 2 -0.787232 6.51506 -5.13801 
26 1 0.262258 -6.98536 -4.7707 
1107 1 0.814065 6.24818 -4.83784 
924 1 1.60745 5.78123 -4.88826 
1435 1 0.358988 5.35555 -4.90173 
2978 2 1.25303 6.83864 -5.80863 
504 1 2.25464 6.21101 -5.14984 
492 1 2.48146 6.59939 -5.93242 
1051 1 4.87261 6.96684 -6.20866 
1513 1 4.56593 6.19589 -5.5659 
2172 1 3.8998 -6.86429 -4.3604 
451 1 4.2418 6.6661 -4.75816 
302 1 3.25531 6.41998 -5.42024 
274 1 5.57519 6.82291 -5.84622 
3257 2 5.53852 5.9832 -4.95008 
2971 2 5.44407 6.77723 -4.72149 
16 1 6.57693 5.75708 -5.2641 
2473 1 6.50988 6.56484 -4.40311 
1673 1 -6.70268 -6.97623 -4.14563 
2162 1 -6.61942 -6.80609 -3.35908 
3228 2 -5.55574 -6.5794 -3.69885 
3375 2 -5.76714 -5.84249 -3.5762 
2332 1 -4.39935 -6.55754 -3.88257 
2835 2 -3.18406 -7.06037 -4.40765 
959 1 -2.85509 -6.39788 -2.83204 
3265 2 -3.02939 6.49461 -4.54917 
1506 1 -2.2884 -7.13316 -3.68927 
2033 1 -2.20145 -6.5626 -4.94503 
1630 1 -2.42352 6.48876 -3.53461 
1629 1 -1.46403 -6.30027 -4.03424 
1143 1 -0.560207 -6.74558 -3.10925 
3236 2 0.344373 -6.19914 -3.42587 
1945 1 -0.131198 -5.79238 -4.98731 
2096 1 1.11857 -7.06552 -4.46873 
3056 2 0.520929 -7.06665 -3.29855 
1416 1 2.75159 -6.10964 -5.05491 
1382 1 0.556 -6.14835 -4.43029 
1967 1 1.36167 -6.4882 -3.79976 
3303 2 2.58628 -6.41481 -4.07635 
2918 2 2.53126 -5.58422 -3.88378 
893 1 3.44411 -5.04236 -3.82446 
1358 1 4.02528 -4.98332 -3.20339 
440 1 3.64165 -5.99474 -4.34769 
2315 1 3.13608 -5.52351 -2.84697 
2926 2 5.05425 -6.91922 -4.66903 
144 1 5.47268 -5.48013 -3.80528 
2469 1 4.46139 -5.89009 -3.44515 
2571 1 6.18087 -6.08616 -4.1826 
2029 1 6.96752 -6.14442 -4.09467 
610 1 6.90882 -7.11562 -4.22014 
1872 1 -6.88599 -5.11434 -4.34404 
2309 1 -6.055 -4.85326 -4.71917 
582 1 -4.5066 -5.56794 -3.33928 
2896 2 -5.92307 -5.11006 -3.56835 
2318 1 -5.60041 -5.92286 -4.89271 
2459 1 -4.95885 -5.09878 -4.39483 
3413 2 -3.35269 -6.24001 -4.31693 
3562 2 -3.64896 -5.51568 -4.29489 
104 1 -1.83185 -5.4406 -3.83782 
2439 1 -2.26379 -5.85988 -4.48452 
458 1 -1.86831 -4.36059 -3.46533 
1127 1 -1.28069 -3.80163 -3.19665 
401 1 -0.970987 -5.45794 -3.82164 
635 1 -0.378655 -6.0878 -4.18613 
1431 1 -0.69599 -4.63825 -3.97292 
27 1 0.80117 -5.29752 -4.23688 
1511 1 1.34337 -5.42008 -3.49372 
3379 2 2.41715 -4.8082 -3.27945 
665 1 3.37575 -4.36895 -4.2019 
847 1 3.77714 -4.54622 -5.093 
3340 2 4.53744 -4.7447 -4.33078 
2695 1 4.50304 -4.22164 -2.91004 
1493 1 4.87547 -5.10701 -3.11426 
1994 1 6.71053 -5.34978 -3.95857 
1955 1 5.98904 -4.65265 -3.87248 
472 1 -6.72439 -4.24868 -4.39616 
2721 1 -6.53196 -3.9038 -5.26161 
874 1 -5.84576 -4.01778 -4.2782 
935 1 -5.48076 -2.91048 -4.1006 
3536 2 -3.82599 -4.78448 -4.00153 
3376 2 -4.01565 -3.94766 -3.86843 
2524 1 -2.48405 -4.96425 -3.81908 
647 1 -2.83589 -3.69551 -4.09772 
728 1 -2.18794 -3.43693 -3.47687 
2496 1 -2.89954 -4.17354 -3.32166 
180 1 -0.677393 -3.73285 -4.00779 
3285 2 -1.70319 -4.32982 -4.49495 
322 1 -1.19691 -3.0284 -3.57467 
2102 1 0.311034 -4.2735 -3.99139 
1799 1 1.81343 -5.00275 -4.61035 
954 1 0.443883 -3.36519 -3.85668 
1843 1 0.915125 -2.45445 -4.09413 
393 1 1.42281 -4.15279 -4.42366 
1069 1 1.25214 -3.37764 -4.33213 
3230 2 2.2729 -4.26443 -3.78706 
3015 2 2.07417 -3.7876 -3.242 
999 1 2.87966 -2.54023 -4.02438 
1653 1 3.15901 -3.50075 -3.47502 
3244 2 4.43238 -3.9456 -4.22812 
2857 2 4.23713 -3.20635 -4.1472 
742 1 3.32233 -2.68498 -3.19213 
2239 1 5.10913 -3.53639 -3.28602 
335 1 5.22956 -4.32472 -3.37923 
1703 1 5.79749 -3.03347 -3.70777 
1658 1 7.01975 -4.42982 -3.82781 
431 1 6.31036 -3.83179 -3.67699 
1144 1 -6.26022 -3.2612 -4.41473 
1449 1 -6.07013 -2.26326 -4.08424 
1707 1 -5.53037 -2.37307 -3.50069 
517 1 -7.12628 -3.55947 -4.25366 
2388 1 -4.62592 -2.67245 -4.57553 
572 1 -5.21754 -2.74093 -2.74906 
3229 2 -4.42055 -2.21737 -3.27648 
1864 1 -3.57977 -3.58364 -4.8204 
871 1 -3.35064 -2.0935 -3.6822 
3083 2 -4.30096 -2.99251 -3.62342 
2310 1 -2.8815 -4.36282 -4.53758 
2638 1 -3.24679 -3.0605 -4.27558 
1028 1 -0.467813 -3.74291 -4.79073 
3198 2 -2.07158 -2.78062 -4.29478 
2916 2 -1.77417 -3.52456 -4.50952 
1266 1 -1.34574 -2.17936 -3.33424 
2044 1 -0.530636 -2.75545 -4.17668 
2298 1 0.28813 -1.51865 -3.35349 
984 1 -0.0505209 -2.29989 -3.66218 
2542 1 -0.430952 -1.19671 -3.52827 
202 1 2.00971 -1.9924 -4.26758 
858 1 1.06309 -1.57111 -3.87151 
1237 1 2.07487 -2.89865 -4.54563 
303 1 2.77285 -1.7602 -4.38042 
3320 2 2.00504 -3.06597 -3.51041 
3353 2 4.042 -2.45749 -4.02724 
2211 1 5.40266 -2.29793 -4.17355 
2365 1 4.97164 -2.54505 -3.4515 
3173 2 6.44231 -3.1477 -4.85653 
2858 2 6.40604 -2.3727 -4.45532 
1496 1 7.05078 -3.30938 -3.50198 
423 1 5.66045 -1.85137 -3.22266 
1299 1 -6.83717 -2.61363 -4.03278 
960 1 -7.1003 -1.90121 -4.76627 
808 1 -6.00256 -1.56809 -3.6333 
1446 1 -5.03606 -1.99442 -4.30489 
1551 1 6.87203 -1.98841 -3.55807 
2674 1 -4.07226 -1.88457 -4.45431 
2465 1 -3.38112 -1.26823 -3.54342 
111 1 -3.46347 -0.301357 -4.17632 
3447 2 -4.46732 -1.23057 -3.23399 
2748 2 -2.38318 -1.22189 -3.87867 
2766 2 -1.98935 -1.96621 -4.12791 
2395 1 -0.775795 -2.01664 -3.95841 
1971 1 -1.08733 -0.890076 -4.72224 
3585 2 0.00429443 -1.57673 -4.5732 
3500 2 0.0588061 -0.777245 -4.50891 
2057 1 -1.10166 -1.14604 -3.89683 
2434 1 1.36057 -1.88343 -4.79713 
1700 1 1.05521 -0.945253 -4.67574 
922 1 1.9241 -1.18929 -4.09927 
1969 1 0.753298 -0.685139 -3.5533 
2306 1 3.36962 -1.25145 -4.76104 
2013 1 2.97158 -0.46838 -4.32584 
76 1 3.70276 -0.484263 -4.95403 
3134 2 4.02502 -1.65998 -3.95417 
2914 2 3.91181 -0.866993 -3.51201 
844 1 4.84606 -1.56123 -2.99445 
1648 1 4.70745 -0.583818 -4.52283 
2299 1 5.04832 -1.47882 -4.08116 
2054 1 -7.08371 -2.25985 -5.73689 
3116 2 6.19855 -1.55456 -4.26451 
1301 1 -6.99779 -1.37308 -3.87371 
1720 1 6.44029 -1.69303 -2.89826 
52 1 -6.33096 -0.694816 -3.55507 
1627 1 -6.7268 0.446792 -3.48097 
3263 2 -6.45344 0.770079 -4.50738 
35 1 6.87189 0.00347907 -3.55715 
1514 1 -5.31579 -1.24579 -3.98544 
1343 1 -5.60107 -0.833545 -3.07 
1835 1 -4.0822 -1.13665 -4.17649 
1316 1 -3.46396 -0.434556 -3.27754 
2423 1 -4.41425 -0.0163949 -4.05318 
2789 2 -2.3252 -0.484265 -3.84511 
3490 2 -2.48116 0.330712 -3.56668 
1531 1 -1.34366 -0.280663 -4.1103 
2241 1 -1.04606 -0.39863 -3.35951 
3555 2 -0.325099 -0.0710103 -4.45018 
1706 1 0.761442 0.229023 -3.76069 
1296 1 -0.0354346 0.859737 -5.27062 
2237 1 1.61096 -0.468207 -3.95182 
446 1 1.02972 -0.055663 -4.65241 
1337 1 2.91823 0.481351 -3.96746 
483 1 3.86609 -0.00881197 -4.34473 
455 1 4.42278 0.984883 -3.58514 
2902 2 5.87769 0.138774 -3.8685 
1548 1 4.6415 0.0911544 -3.57881 
2856 2 5.88874 -0.827413 -4.0812 
523 1 6.82281 -0.999361 -3.51257 
654 1 6.84074 0.91377 -4.327 
3260 2 -6.55059 1.58967 -4.32985 
3033 2 -6.61708 2.41186 -4.12066 
385 1 -5.40146 -0.36332 -3.91202 
1793 1 -5.4663 0.730224 -3.94042 
2311 1 -5.89098 2.06883 -3.07032 
500 1 -4.57302 1.64989 -3.92827 
493 1 -5.0372 0.79814 -4.7511 
2278 1 -4.32325 0.81363 -4.02535 
882 1 -3.6683 0.455603 -3.15951 
2601 1 -2.95554 0.536483 -4.63643 
2177 1 -3.4704 0.488556 -4.06659 
3588 2 -2.56103 1.07086 -3.31068 
857 1 -1.93434 0.254591 -4.66273 
1910 1 -1.38782 0.620149 -3.97195 
14 1 -0.980485 0.46182 -3.18851 
154 1 -1.6157 1.56212 -4.1625 
2950 2 -0.35756 0.607301 -4.1928 
3196 2 -0.342778 1.31121 -3.90333 
692 1 1.65799 0.455412 -3.60823 
3241 2 1.64042 1.92509 -4.43118 
2 1 0.751351 1.97919 -3.3236 
2328 1 0.677692 1.00429 -4.35158 
254 1 1.25616 1.33399 -3.43269 
583 1 2.60606 1.2818 -3.98839 
1614 1 2.87736 2.22188 -3.96968 
296 1 3.85571 0.815787 -4.3288 
840 1 4.71616 1.34251 -2.91893 
1364 1 3.60239 1.6787 -4.00239 
234 1 4.55476 1.66359 -3.98859 
2819 2 5.77289 0.962947 -3.68271 
3209 2 5.62709 1.77215 -3.59454 
34 1 6.19565 1.02905 -4.79574 
2440 1 6.70353 2.42713 -4.57506 
817 1 6.7118 1.68866 -3.9485 
2751 2 -6.78017 3.23156 -3.90375 
3021 2 -6.97199 4.04475 -3.73299 
2061 1 -5.51087 1.8978 -3.88724 
412 1 -5.79251 3.08365 -3.41311 
2383 1 -4.98428 2.53205 -3.48822 
2529 1 -3.382 1.51727 -4.16204 
697 1 -3.25147 2.72721 -4.14663 
1483 1 -2.9542 2.05522 -4.79717 
2436 1 -2.41036 2.16466 -4.31037 
1002 1 -2.31739 1.21982 -4.48119 
3006 2 -0.783779 2.89078 -3.5526 
892 1 -1.74611 2.37333 -3.71885 
2860 2 -0.581603 2.15134 -3.693 
301 1 0.0615052 3.80936 -3.83886 
30 1 0.3754 2.96586 -3.79566 
3063 2 1.53986 2.66461 -4.40192 
1176 1 3.45751 2.6684 -3.81997 
441 1 2.22421 2.05929 -3.52878 
2084 1 4.15841 2.24522 -3.41197 
3369 2 5.39424 2.48098 -3.43551 
2637 1 4.46238 2.75197 -4.00995 
556 1 4.29065 3.69382 -3.93734 
2976 2 5.32884 3.22278 -3.20695 