ITEM: TIMESTEP
800
ITEM: NUMBER OF ATOMS
3594
ITEM: BOX BOUNDS pp pp pp
-7.1782031985634678e+00 7.1782031985634678e+00
-7.1782031985634678e+00 7.1782031985634678e+00
-7.1782031985634678e+00 7.1782031985634678e+00
ITEM: ATOMS id type x y z 
803 1 -6.24519 -6.92635 -6.05487 
2727 1 -6.97959 -6.13751 -6.15441 
3520 2 -4.9146 -6.62572 -5.7733 
358 1 -4.60598 -6.77252 -6.81962 
196 1 -5.43932 -6.23351 -7.03794 
2114 1 -3.92988 -5.92569 -6.03061 
1004 1 -3.76276 -6.68512 -6.42237 
606 1 -3.60877 7.08024 -7.14606 
3268 2 -2.81051 -6.0564 -6.18507 
3454 2 -2.42533 -6.6863 -6.22262 
1107 1 -1.45866 -6.44188 -6.66937 
1088 1 -0.814075 -6.242 -5.85714 
2240 1 -1.33149 7.13836 -6.36203 
3368 2 -0.600279 -5.78871 -6.89902 
3537 2 -0.46199 -6.53471 -7.07727 
2491 1 0.0268639 -5.89218 -5.87152 
40 1 0.635708 -6.341 -6.55778 
2113 1 1.4094 -6.78167 -6.67273 
1100 1 2.26789 -6.64521 -6.67667 
2172 1 2.45303 7.12456 -5.86807 
725 1 2.75028 7.03334 -7.16348 
3587 2 3.41661 -6.52855 -6.16261 
440 1 3.94186 -5.62225 -7.00505 
1538 1 4.48502 -6.35734 -6.05562 
3208 2 5.41665 -6.21159 -6.78472 
2787 2 5.76849 -7.03174 -6.84044 
686 1 6.64587 -6.53969 -6.00409 
1772 1 6.63077 -6.59755 -6.91231 
1060 1 -6.94718 -7.04009 -6.38154 
1733 1 -6.22397 -5.94124 -5.521 
3366 2 -6.5684 -5.49252 -7.11933 
3495 2 -6.80593 -4.73744 -6.99075 
2521 1 -5.87835 -5.97218 -6.3526 
477 1 -4.77308 -5.93083 -6.70495 
2641 1 -5.40404 -5.20908 -6.65657 
2042 1 -5.00499 -4.37523 -6.49911 
1671 1 -3.86332 -5.32877 -5.44877 
1918 1 -4.27833 -5.19584 -6.42973 
174 1 -3.5979 -5.61604 -6.96433 
2944 2 -2.92087 -5.25908 -6.23773 
20 1 -1.55719 -5.76273 -6.11599 
2139 1 -1.8765 -5.10514 -6.5472 
3019 2 -0.625951 -5.0106 -6.70169 
1702 1 -1.84417 -5.83521 -7.0831 
891 1 0.615942 -5.14713 -6.42506 
2321 1 0.428751 -4.45763 -7.09972 
480 1 -0.067505 -4.82309 -5.75213 
799 1 1.40684 -5.85842 -6.35905 
1966 1 1.16778 -4.59352 -6.24173 
1810 1 1.82046 -4.97758 -6.08871 
2287 1 2.46058 -5.50538 -6.53732 
1711 1 3.07118 -5.79142 -7.12952 
3442 2 3.2934 -5.82313 -5.92974 
274 1 4.36981 -5.45617 -6.22842 
1724 1 3.33491 -5.02725 -6.78616 
1373 1 4.02865 -4.59486 -6.50741 
2812 2 5.42257 -5.46995 -6.45551 
3212 2 5.33835 -4.64366 -6.30185 
1318 1 6.15634 -5.77183 -5.67742 
1830 1 6.47837 -5.65408 -6.54442 
558 1 7.03747 -5.25288 -6.00943 
3029 2 -7.09937 -3.99646 -6.73361 
1406 1 -6.30454 -5.15721 -6.04195 
2975 2 -7.17777 -3.19704 -6.78518 
639 1 -6.47607 -3.66018 -5.99626 
1496 1 -5.97578 -3.46993 -6.97204 
601 1 -5.30924 -3.73283 -6.23091 
1001 1 -4.06166 -4.44958 -6.76161 
2981 2 -3.40427 -3.78746 -5.94842 
582 1 -4.39161 -3.68348 -6.53994 
1465 1 -3.59807 -3.55087 -7.07113 
3574 2 -3.16838 -4.57313 -6.08163 
83 1 -2.83738 -3.84423 -7.05072 
911 1 -2.11178 -4.09724 -6.06936 
2627 1 -2.02104 -4.42403 -6.96864 
2077 1 -2.17658 -3.37785 -6.45572 
3484 2 -0.896708 -4.22953 -6.54196 
2808 2 -0.969331 -3.51526 -6.30677 
2298 1 0.296161 -4.1231 -6.36691 
1122 1 0.177149 -3.49396 -6.83778 
2178 1 1.82532 -3.82469 -6.29028 
139 1 0.946585 -3.93886 -5.84628 
2051 1 2.38672 -4.51677 -6.52953 
19 1 2.70168 -4.92444 6.93238 
502 1 2.47993 -3.50884 -6.82486 
2062 1 3.26657 -4.0279 -6.6848 
1215 1 4.29871 -3.87972 -7.11952 
2306 1 4.03712 -4.02801 -5.91756 
3266 2 5.14891 -3.98088 -6.32914 
2767 2 4.86298 -3.26658 -6.03541 
377 1 6.65547 -4.14982 -5.80717 
284 1 6.37457 -4.75703 -6.3747 
2068 1 6.21874 -3.72264 -6.41282 
2130 1 -5.85936 -3.04084 -6.12071 
2706 1 -6.55392 -2.28881 -5.8064 
1301 1 -6.28167 -1.70032 -6.61032 
1835 1 -5.49627 -2.24272 -6.15749 
1087 1 -4.67762 -2.42737 -5.46573 
2699 1 -4.75737 -2.98432 -6.05311 
1986 1 -4.08041 -2.90242 -6.57332 
304 1 -3.80844 -3.00947 6.73329 
56 1 -4.36414 -1.9223 -6.16889 
493 1 -2.96843 -2.90299 -6.81639 
2490 1 -3.66451 -2.29944 -6.89017 
1933 1 -2.63962 -2.08102 -6.65813 
1094 1 -2.26663 -2.68623 -6.06309 
3234 2 -1.37498 -2.05294 -6.1508 
3332 2 -1.12528 -2.80026 -6.25623 
2024 1 -0.196566 -2.34544 -6.75046 
1425 1 0.0768881 -2.97197 -6.22459 
3503 2 1.05903 -2.97583 -6.956 
3347 2 0.881969 -2.24126 -6.78564 
1738 1 1.62521 -2.1201 -5.84421 
2492 1 1.795 -2.96469 -5.92748 
2599 1 2.25105 -2.47273 -6.43125 
1471 1 3.02586 -2.9293 -6.52061 
2483 1 3.80845 -3.32574 -6.52962 
1770 1 3.5647 -2.15514 -6.1171 
85 1 4.19883 -2.48047 -6.86357 
3550 2 4.97849 -2.54799 -5.97835 
1354 1 5.04327 -2.38215 -7.09039 
3126 2 7.11448 -2.36581 -6.519 
190 1 6.11429 -3.01045 -6.12217 
122 1 6.34424 -3.21521 6.94332 
2578 1 -6.1457 -1.49269 -5.82521 
1138 1 -6.70007 -0.94643 -6.64278 
2523 1 -5.17238 -1.4395 -5.93677 
499 1 -4.27067 -1.01881 -6.59122 
3097 2 -5.50174 -1.04147 -6.9315 
3360 2 -5.08238 -1.91818 -7.00787 
2337 1 -3.77061 -0.393275 -6.25406 
12 1 -3.65448 -1.54224 -6.61913 
1790 1 -2.99801 -0.722485 -6.05399 
1264 1 -2.80377 -1.30623 -6.50825 
624 1 -1.16312 -1.10435 -7.11033 
3105 2 -1.49495 -1.23916 -6.02405 
1106 1 -0.540966 -1.48934 -6.77969 
1822 1 -1.03456 -2.08156 7.07947 
428 1 -0.487842 -1.03729 -6.11284 
3151 2 0.652803 -0.781047 -6.43028 
2804 2 0.775153 -1.55936 -6.56643 
1940 1 1.35753 -1.12429 -5.62046 
1462 1 1.6629 -0.650989 -6.75688 
644 1 1.92681 -1.39553 -6.2525 
1976 1 2.75071 -1.60692 -6.21537 
3406 2 2.65959 -0.418213 -7.01885 
1618 1 1.94436 -1.7734 -6.97764 
2220 1 3.77587 -1.34731 -6.55946 
859 1 3.37228 -0.85832 -6.0002 
1806 1 5.72918 -2.63924 -6.83075 
2617 1 4.87774 -1.67801 -6.79048 
2183 1 4.33989 -0.390705 -6.70756 
453 1 5.75647 -1.64298 -6.74792 
3087 2 6.84922 -1.73713 -6.35226 
2840 2 6.75857 -0.87664 -6.43093 
2414 1 -6.81806 -0.15928 -7.04884 
720 1 -6.78538 0.386662 -6.37215 
3127 2 -5.61854 -0.199192 -6.70345 
3007 2 -5.67787 0.559719 -6.52068 
1474 1 -3.42422 0.333646 -6.05022 
519 1 -4.34203 0.443644 -7.0971 
625 1 -4.27795 0.304196 -6.35487 
1353 1 -2.42826 -0.431929 -6.52104 
1265 1 -2.60797 0.454714 -6.2415 
3200 2 -1.62938 -0.432272 -5.79715 
1116 1 -0.949562 -0.234633 -6.83207 
1238 1 -1.7598 -0.255269 -7.10297 
1380 1 -0.545919 -0.0317051 -6.00109 
731 1 -0.373764 0.701377 -7.15653 
3088 2 0.42002 -0.0130824 -6.46683 
2231 1 1.57953 -0.215214 -5.95433 
2336 1 2.14892 0.220218 -5.78824 
3195 2 2.63551 0.320412 -6.86042 
72 1 2.47617 -0.734509 -6.04362 
2535 1 3.49489 -0.13927 -6.35853 
1596 1 3.84038 -0.777869 7.02779 
1080 1 4.1518 0.501484 -6.76308 
1895 1 5.83191 0.492547 -6.98557 
2380 1 4.89322 0.354818 -6.43023 
2797 2 6.58593 -0.224074 -6.05592 
571 1 6.6431 0.131163 7.13441 
3140 2 -5.88828 1.29144 -6.56068 
2711 1 -7.00602 1.31595 -6.3174 
1331 1 6.98785 0.83043 -6.87254 
2677 1 -4.63886 1.56773 -5.99861 
218 1 -4.72911 1.09955 -6.84156 
408 1 -3.83033 1.23331 -6.05691 
3093 2 -3.86429 1.81814 -7.00551 
3148 2 -3.50635 1.11963 -7.16193 
1139 1 -2.84862 1.24347 -6.30163 
2452 1 -1.9932 1.19979 -6.59301 
2520 1 -2.1982 0.445769 -6.9195 
1993 1 -1.15636 1.66116 -6.76322 
2289 1 -1.20719 0.764854 -6.72698 
1219 1 -0.362376 1.55732 -7.0616 
3311 2 0.398414 0.679307 -6.157 
2928 2 0.191915 1.61022 -5.98983 
2558 1 1.36039 1.27569 -6.42756 
1834 1 1.08975 2.10095 -6.55806 
2605 1 1.29704 1.20637 7.10877 
2960 2 2.52241 0.996554 -6.96693 
3459 2 2.36289 1.71623 -6.79758 
1286 1 3.56939 1.00684 -6.34868 
2276 1 3.49276 1.82916 -5.92538 
1625 1 4.39854 1.25489 -6.44326 
873 1 5.41352 1.2996 -6.62658 
1939 1 6.09041 2.37281 -6.97142 
162 1 6.36064 1.40311 -7.05259 
3038 2 6.17243 1.37947 -5.82299 
577 1 7.05957 2.04156 -6.89788 
3465 2 -6.11023 2.02688 -6.48988 
2736 2 -6.26352 2.74568 -6.11538 
263 1 -6.74213 2.50917 7.0782 
1233 1 -5.09071 2.13832 -6.68363 
1056 1 -4.98833 2.60241 -6.0387 
1684 1 -5.43729 2.9116 -7.1259 
2783 2 -3.87551 2.50103 -6.98404 
1991 1 -2.94624 2.10766 -6.18612 
580 1 -2.46112 1.91805 -6.87744 
1230 1 -2.15238 3.11953 -6.28458 
1523 1 -1.78991 2.16405 -6.40709 
1817 1 -0.994667 2.58851 -6.68504 
1224 1 -1.06399 3.55175 -6.62978 
532 1 -0.189757 2.36824 7.14625 
883 1 0.520537 1.63235 -7.14287 
2208 1 0.0351777 3.39674 -6.89136 
171 1 0.920606 2.97477 -6.13525 
323 1 0.576431 2.59967 -6.83518 
3393 2 2.09333 2.50221 -6.52002 
3417 2 2.05743 3.28553 -6.38772 
175 1 2.76294 1.45851 -5.62253 
613 1 3.67417 2.99313 -5.9976 
1505 1 4.22769 2.28605 -6.1816 
241 1 3.12033 2.60856 -6.89086 
2352 1 5.27532 2.12896 -6.67296 
1176 1 5.02364 2.76707 -6.32699 
2092 1 5.39972 2.63407 6.82784 
1169 1 6.98867 2.31603 -6.12367 
2305 1 6.43078 2.95357 -6.5961 
2116 1 5.51677 3.35681 -6.69824 
243 1 -6.1854 3.48659 -7.17396 
3238 2 -6.34926 3.65563 -6.11184 
1396 1 -7.05089 3.09337 -6.89186 
3045 2 -6.44726 4.35167 -6.03271 
488 1 -5.34485 3.45464 -6.41015 
718 1 -5.44224 3.94374 -7.01167 
3408 2 -4.20335 3.14353 -6.89718 
3411 2 -4.33321 3.90441 -6.73712 
2576 1 -3.27434 3.85048 -7.13178 
337 1 -2.6493 3.74276 -6.43751 
2505 1 -1.7385 4.01603 -6.08592 
3098 2 -2.05626 4.52975 -7.07615 
2320 1 -2.82604 2.8605 -6.6163 
1932 1 -1.42879 3.1177 -5.81937 
2322 1 -1.04309 4.46798 -6.43277 
3217 2 -1.91536 3.79112 7.05139 
894 1 -0.138137 4.33348 -6.6849 
1644 1 0.718763 3.67829 -6.58085 
2630 1 0.743783 3.84741 -5.67076 
3478 2 1.87121 4.02682 -6.29988 
2000 1 1.00143 4.2975 -7.05976 
1978 1 1.98903 4.60168 7.1151 
486 1 2.78064 4.18303 -7.11962 
103 1 3.22701 3.52631 -6.6598 
2765 2 4.29309 3.29882 -7.13192 
3215 2 4.12859 4.17982 -6.93253 
565 1 3.6306 3.84837 -5.87765 
885 1 5.31333 3.73975 6.98797 
81 1 4.87395 3.938 -6.23946 
889 1 6.9057 3.70177 -6.42125 
1148 1 6.11048 4.10025 -6.48889 
2063 1 7.07846 4.59543 -6.61593 
2357 1 -6.24183 4.50957 -7.10607 
1718 1 -6.40462 5.7302 -6.6599 
1879 1 -6.98178 5.22302 -7.06785 
2376 1 -5.41555 4.57064 -6.2022 
402 1 -5.74827 5.08435 -6.87121 
2574 1 -5.37781 5.55356 -6.26437 
3471 2 -4.34788 4.75803 -6.35145 
870 1 -3.12386 4.66437 -6.77664 
3463 2 -4.25719 5.54817 -6.39922 
989 1 -3.07542 5.44395 -6.44474 
3306 2 -2.15767 5.3415 -6.99561 
1894 1 -2.6239 5.24046 -5.73696 
2626 1 -1.91844 4.69908 -5.65468 
798 1 -1.02064 5.01246 7.16941 
849 1 -1.45378 5.35763 -6.13231 
1567 1 -0.44021 5.22079 -6.44252 
867 1 0.43485 4.43032 -6.12034 
2494 1 0.571085 5.14684 -6.58804 
3466 2 1.5912 4.75429 -6.18547 
3138 2 1.55077 5.37109 -5.84529 
1889 1 1.9737 5.60259 -7.04118 
371 1 2.61517 5.22726 -6.48095 
1019 1 2.59513 6.14454 -6.75416 
3551 2 4.01731 5.01447 -6.75158 
3223 2 3.83981 5.80587 -6.69271 
2669 1 5.4193 4.53547 -6.48998 
1390 1 4.79859 5.14733 -5.94783 
115 1 5.17132 5.29536 -6.9231 
1865 1 5.78622 5.27506 -6.28877 
1927 1 5.01354 5.85722 -6.10081 
2025 1 6.46619 4.88715 -6.01091 
1656 1 6.86707 5.65935 -6.33998 
2905 2 6.00401 5.92166 -7.19275 
2662 1 -5.65453 6.40954 -6.54405 
2170 1 7.19189 6.36127 -6.72647 
1599 1 -6.47564 6.61602 -6.43084 
594 1 -5.09998 5.77672 -7.07968 
3477 2 -4.74069 7.01704 -6.0358 
1140 1 -5.63461 -7.04678 -6.65019 
3150 2 -4.48217 6.25707 -6.13939 
2275 1 -3.40313 6.39899 -6.52644 
2832 2 -2.5116 6.98753 -6.61855 
2839 2 -2.23375 6.19721 -6.7134 
1763 1 -1.35657 6.61185 -7.03682 
1308 1 -1.06214 6.07078 -6.35667 
197 1 -0.436466 6.45646 -6.27804 
512 1 -0.517155 -7.16098 -6.12498 
2564 1 0.365501 7.0231 -6.31735 
2038 1 0.479331 6.01462 -6.5931 
23 1 1.39635 6.14406 -6.93313 
2265 1 0.852711 6.8948 -7.1262 
2600 1 1.91635 6.78316 -6.55554 
614 1 2.39485 6.1458 -5.8859 
2790 2 3.68648 6.42127 -6.18156 
3569 2 3.48522 7.10198 -6.4457 
10 1 4.58647 6.99119 -6.53763 
1871 1 5.43642 6.55233 -5.80107 
1610 1 6.72494 6.84827 -6.03042 
3539 2 5.98105 6.61652 -6.71648 
2029 1 -5.96107 -6.58199 -5.03338 
1255 1 -5.79949 6.97896 -5.532 
3487 2 -7.06832 -7.04684 -5.12386 
2828 2 7.16464 -6.32954 -5.04708 
3416 2 -5.08569 -5.8799 -5.6505 
833 1 -5.23696 -6.90767 -4.60811 
2466 1 -4.46631 -6.60092 -4.55419 
2332 1 -3.68561 -6.65956 -5.31397 
2200 1 -4.04236 7.03804 -4.90322 
897 1 -2.96717 -6.83827 -5.36079 
995 1 -2.46547 -6.38915 -4.70455 
356 1 -2.05275 -6.94291 -4.39735 
1905 1 -1.61009 -6.61567 -5.70325 
3018 2 -0.958953 -6.70301 -4.90501 
3594 2 -1.15524 -6.01268 -4.7286 
1468 1 -0.167757 -5.41134 -5.21668 
687 1 0.0643156 -6.70812 -5.71281 
2978 2 1.16933 -6.77051 -5.5623 
3128 2 1.17685 -5.91256 -5.37993 
1629 1 2.02113 -5.48949 -4.48885 
295 1 2.17294 -6.14823 -6.05783 
2028 1 1.88406 -6.28931 -4.40817 
579 1 2.52717 -6.21026 -5.10483 
2479 1 4.24708 -6.90465 -5.51434 
1175 1 2.99371 -6.90964 -5.04249 
795 1 3.62992 -6.37434 -4.9763 
1616 1 5.16529 -5.89615 -5.45367 
1526 1 5.74824 -6.53419 -5.88432 
3290 2 4.87589 -6.49685 -4.54563 
2695 1 6.09374 -6.50722 -4.97495 
2053 1 6.16666 7.08623 -4.44554 
2269 1 -6.28388 -4.92087 -4.97187 
1312 1 -5.99686 -5.65396 -4.68913 
2912 2 -5.14825 -5.07302 -5.45655 
3325 2 -5.24193 -4.32764 -5.25803 
2388 1 -4.24717 -5.08577 -4.60883 
2612 1 -4.15404 -5.98899 -4.92661 
2248 1 -3.1428 -5.95688 -5.14972 
448 1 -2.00262 -5.87772 -5.34702 
1665 1 -2.62142 -5.40117 -4.82412 
1979 1 -2.22129 -4.97936 -5.45172 
527 1 -1.422 -4.81172 -5.63987 
1652 1 -0.85006 -5.42922 -5.65283 
1836 1 -0.364882 -4.61928 -4.68708 
2826 2 0.913965 -5.24008 -5.20285 
2957 2 3.17228 -4.92679 -5.59596 
2315 1 2.93592 -5.52029 -4.71591 
1160 1 2.12188 -5.22564 -5.41216 
1300 1 2.80461 -4.63182 -4.49321 
2370 1 4.30256 -5.79673 -5.28461 
281 1 4.02219 -4.53471 -4.98806 
1320 1 5.12735 -5.10525 -5.2645 
329 1 5.92179 -5.61385 -4.81737 
2721 1 5.70611 -4.39389 -5.09968 
628 1 4.49433 -4.78772 -5.64344 
2686 1 6.08944 -4.93686 -5.613 
3010 2 7.04814 -5.4988 -4.94188 
3080 2 6.85215 -4.66944 -4.80089 
1481 1 -6.52928 -3.88611 -5.10184 
1954 1 -5.96799 -4.3736 -6.05356 
2737 2 -5.4952 -3.56117 -5.09695 
172 1 -4.06875 -4.23619 -4.85076 
1784 1 -4.36046 -4.45657 -5.81421 
715 1 -4.69139 -4.44329 -4.2496 
26 1 -3.34022 -4.79513 -5.04016 
1643 1 -2.40559 -4.04453 -5.19764 
1864 1 -2.08906 -3.25083 -5.45939 
1235 1 -1.50776 -3.80284 -5.3806 
1210 1 -0.754557 -4.27423 -5.37174 
842 1 -0.42285 -3.67828 -4.61218 
15 1 -0.134789 -3.65895 -5.58148 
2768 2 0.730995 -3.7282 -4.86136 
1313 1 1.87068 -4.25749 -5.42094 
3068 2 0.776263 -4.52012 -5.02396 
2048 1 1.79482 -3.43597 -5.22384 
2933 2 2.91298 -4.16311 -5.55891 
1653 1 2.40556 -3.77326 -4.49817 
3249 2 2.91402 -3.40721 -5.52491 
879 1 3.42973 -4.14148 -4.52557 
2348 1 4.03446 -3.6181 -5.17266 
2530 1 4.86952 -4.20022 -5.19184 
659 1 6.05956 -3.66633 -5.47182 
840 1 5.04223 -3.45434 -4.85851 
1788 1 -6.76703 -4.46496 -5.73222 
3173 2 6.82177 -3.84581 -4.56744 
802 1 7.05583 -3.42668 -5.5959 
2858 2 6.44913 -3.16779 -4.32739 
346 1 -6.66157 -2.97867 -5.21597 
1514 1 -7.04075 -1.94709 -5.21717 
2974 2 -5.85862 -2.08114 -4.99445 
2890 2 -5.66636 -2.76093 -4.88318 
2296 1 -4.75568 -1.6945 -5.19368 
3041 2 -3.48847 -2.45686 -5.63845 
3061 2 -3.22323 -3.10668 -5.71472 
2674 1 -4.45024 -3.57377 -5.50738 
1542 1 -4.35277 -2.95621 -4.91408 
401 1 -3.63639 -3.10813 -4.55363 
1611 1 -2.99715 -2.31277 -4.58485 
1815 1 -2.28972 -2.08613 -5.05302 
1433 1 -2.73037 -3.14997 -4.73469 
1840 1 -1.6683 -2.60484 -5.18348 
685 1 -0.950683 -3.20802 -5.19213 
484 1 -0.328462 -2.79468 -5.40479 
3227 2 0.480242 -3.02849 -4.67375 
3430 2 0.310332 -2.29614 -4.62905 
886 1 0.629827 -2.29983 -5.65089 
2697 1 0.955204 -3.06344 -5.78446 
3014 2 2.69406 -2.63153 -5.29861 
2830 2 2.44497 -1.93195 -5.06558 
1075 1 3.92251 -2.82608 -5.61789 
1946 1 3.41607 -3.14954 -4.43982 
538 1 3.7389 -2.42027 -4.85351 
1472 1 4.4795 -2.80387 -4.78379 
2225 1 5.17369 -2.38303 -4.7677 
483 1 5.70921 -2.91058 -5.15313 
1385 1 6.6471 -2.64616 -5.51093 
366 1 5.99316 -2.02287 -5.60446 
1335 1 -6.98766 -1.23481 -5.51332 
1145 1 6.96838 -0.813861 -4.88556 
3267 2 -6.20145 -0.748346 -4.73197 
2993 2 -5.8014 -1.43372 -4.70176 
1446 1 -4.90502 -0.839056 -4.95894 
90 1 -4.7427 -2.23245 -4.48861 
2869 2 -3.60009 -1.69323 -5.42452 
2844 2 -3.93666 -1.00371 -5.33578 
1581 1 -2.62529 -1.82033 -5.81081 
1890 1 -2.48942 -0.990134 -5.2759 
400 1 -2.70285 -1.31612 -4.5611 
1984 1 -0.841696 -2.21858 -4.94938 
1484 1 -1.03799 -0.941402 -4.89134 
2601 1 -1.58794 -1.57294 -4.99574 
2030 1 -0.555527 -1.42786 -5.36276 
1953 1 -0.185622 -1.93414 -6.01112 
2368 1 0.356089 -1.44375 -5.45598 
84 1 1.2127 -1.79752 -5.08795 
2182 1 1.16235 -1.12957 -4.5292 
3356 2 2.29671 -1.14686 -5.02273 
3557 2 2.22078 -0.44464 -4.78932 
2407 1 3.39422 -1.55105 -5.47744 
2995 2 4.54147 -1.05253 -5.73308 
593 1 4.40114 -1.82997 -4.68604 
1695 1 3.66185 -1.48442 -4.61466 
2972 2 4.70872 -1.86244 -5.77931 
1548 1 5.58546 -1.49652 -5.1585 
1466 1 5.64795 -0.998587 -5.95135 
806 1 6.47937 -1.35653 -5.32492 
1369 1 -6.5692 -0.409652 -5.84145 
1200 1 -6.0081 0.369553 -5.45109 
817 1 -7.08646 -0.0214588 -5.22482 
1833 1 -5.75689 -0.670914 -5.69636 
857 1 -4.71959 -0.408174 -5.98437 
1551 1 -5.06196 0.0198306 -5.11674 
3543 2 -3.90127 -0.215864 -5.13198 
1257 1 -1.89449 -0.710505 -4.74386 
827 1 -2.87251 -0.0926701 -5.45322 
2241 1 -2.36453 0.203482 -4.81898 
2395 1 -1.0058 0.0749658 -4.89497 
2796 2 -1.65735 0.305455 -5.76158 
1057 1 -0.339195 0.527623 -5.20055 
75 1 -0.343017 -0.536044 -5.26517 
42 1 0.401634 0.397049 -5.17177 
2037 1 0.55764 -0.582592 -5.41534 
1374 1 1.28103 0.532147 -5.51098 
549 1 2.01431 1.0419 -5.80319 
1241 1 2.9655 -0.22889 -5.61885 
3449 2 2.14509 0.306378 -4.68158 
1185 1 3.09025 0.51756 -4.92927 
925 1 3.48414 -0.634553 -5.09588 
3317 2 4.47997 -0.318478 -5.48185 
2848 2 4.14765 0.264334 -5.49127 
1168 1 5.12875 -0.888696 -6.6618 
153 1 5.57974 -0.597448 -5.18629 
941 1 6.22387 -0.217748 -4.99856 
3135 2 6.46915 0.574398 -5.84741 
1364 1 5.47266 0.386069 -5.16596 
2560 1 -6.78197 0.859305 -5.51508 
2278 1 -6.40574 1.51195 -5.28274 
882 1 -4.81532 0.739159 -5.67822 
877 1 -5.34004 1.87145 -5.48511 
111 1 -5.52234 1.07772 -5.25084 
755 1 -3.37842 1.65205 -5.50714 
3144 2 -4.32166 1.27137 -4.76503 
3256 2 -3.95758 0.568229 -4.96819 
2939 2 -1.93106 1.13126 -5.52347 
2846 2 -2.19817 1.92634 -5.38988 
24 1 -3.04941 0.874328 -5.23988 
395 1 -0.957503 1.67062 -5.90688 
871 1 -1.36978 1.10205 -4.60502 
2591 1 -0.674236 0.778744 -5.96595 
2708 1 0.0498218 1.43472 -4.94445 
2406 1 0.789941 0.76189 -4.49556 
769 1 1.87976 1.88989 -5.64969 
741 1 0.987999 1.37077 -5.33071 
1614 1 1.2144 2.30099 -5.59699 
3383 2 1.96481 1.05133 -4.58312 
1501 1 3.10194 0.672099 -5.72581 
556 1 2.96623 1.45395 -4.78976 
3364 2 4.07526 1.00057 -5.28154 
3388 2 4.12059 1.73423 -5.1528 
234 1 4.8714 1.73121 -5.95254 
2223 1 5.48815 -0.0355518 -6.13445 
34 1 5.24517 0.954357 -5.73333 
721 1 5.1833 1.7139 -4.89739 
3060 2 6.04343 2.24694 -5.68341 
2631 1 5.89015 1.23756 -4.82925 
698 1 6.93072 1.16371 -4.99784 
2297 1 -7.15584 1.88827 -5.48197 
1584 1 -6.6307 2.58154 -5.13666 
1343 1 -5.75745 2.30872 -4.94847 
732 1 -5.4807 3.12223 -5.44488 
1630 1 -3.28502 2.97867 -5.99158 
1410 1 -3.97608 2.34277 -5.84267 
2861 2 -4.5698 2.04264 -4.82585 
1454 1 -3.53121 2.54559 -5.13803 
3117 2 -2.4707 2.72123 -5.27918 
28 1 -0.743583 1.40342 -5.01123 
46 1 -1.20228 2.35331 -5.46236 
2647 1 0.653601 2.20131 -4.88432 
1768 1 -0.317353 2.45546 -4.81603 
3444 2 -0.218206 3.16354 -5.75756 
3078 2 -0.119775 2.32643 -5.95165 
441 1 1.96787 2.89087 -5.27568 
2707 1 2.55191 2.20127 -5.26368 
2442 1 0.702635 3.03151 -5.08982 
1195 1 2.613 3.16929 -4.68869 
785 1 2.94545 2.54731 -5.85021 
2894 2 3.85788 3.19956 -4.86391 
3433 2 3.80552 2.44119 -5.03282 
908 1 4.53097 3.24747 -5.77202 
1027 1 4.83812 2.53518 -5.45808 
140 1 5.07062 2.74986 -4.5692 
3414 2 5.7338 2.91124 -5.48863 
13 1 7.02876 3.15776 -5.57842 
1575 1 6.8626 2.44321 -5.05226 
822 1 -5.97876 3.54932 -4.83441 
2010 1 -6.82502 3.38032 -4.96461 
244 1 -6.67254 4.25337 -4.87483 
2436 1 -4.91791 3.93522 -5.77915 
92 1 -5.56223 4.1939 -5.25377 
59 1 -4.1337 4.10158 -5.42674 
789 1 -4.27665 3.21256 -5.73434 
285 1 -3.62989 3.47806 -4.93339 
287 1 -3.85337 4.44487 -4.67569 
1356 1 -3.38955 3.83758 -5.9046 
2945 2 -2.5434 3.61318 -5.14685 
2977 2 -2.70123 4.38585 -4.75492 
561 1 -1.3238 2.89641 -4.81658 
474 1 -1.53278 3.78151 -5.14764 
2813 2 -0.527483 3.95126 -5.54493 
2 1 0.316363 4.03169 -4.82273 
482 1 1.37984 3.5547 -5.37551 
1709 1 1.24582 4.46312 -5.04898 
1689 1 2.79312 3.47037 -5.58797 
2271 1 2.12167 3.87304 -5.06317 
268 1 2.47931 4.59747 -5.5099 
1789 1 3.03679 4.56946 -6.15071 
865 1 4.38222 4.37055 -5.65842 
3013 2 3.58236 3.97498 -4.79387 
3298 2 5.92553 3.61999 -5.52946 
2917 2 5.63195 4.20584 -5.33502 
1515 1 4.78598 3.56417 -5.01173 
1760 1 6.65409 3.13685 -4.64361 
131 1 6.82766 4.1966 -5.53451 
404 1 6.8744 4.95185 -5.02061 
3147 2 -6.59851 5.1402 -5.86253 
3330 2 -6.62236 5.88212 -5.48802 
491 1 -6.63972 5.18193 -4.52624 
2690 1 -4.63506 4.84395 -5.29428 
2495 1 -5.37968 5.18775 -5.48141 
1499 1 -3.34448 4.6825 -5.67124 
2469 1 -3.88386 5.25349 -5.18613 
2304 1 -2.68872 4.48676 -6.14923 
3458 2 -2.75947 5.16018 -4.72798 
2865 2 -2.98619 5.89081 -4.48286 
1623 1 -1.98955 5.67716 -5.33392 
353 1 -1.63334 4.94074 -4.76394 
3392 2 -0.731439 5.47273 -5.27983 
3378 2 -0.643811 4.73661 -5.31477 
30 1 0.260332 5.5129 -5.78942 
597 1 0.176046 4.88655 -4.51933 
1713 1 0.471174 4.79762 -5.39826 
2714 1 1.15277 5.3093 -4.7303 
1997 1 2.927 5.51724 -5.66508 
970 1 2.0778 4.8788 -4.63432 
2814 2 3.21715 4.65499 -4.50146 
862 1 2.29161 5.58635 -5.08391 
1066 1 3.78745 5.07276 -5.56211 
1422 1 4.39404 5.29169 -4.90846 
1778 1 4.21381 5.76925 -5.48027 
2927 2 5.6062 4.93538 -5.1083 
3257 2 5.41792 5.74561 -4.94161 
1959 1 6.50359 5.5208 -5.36014 
2160 1 -5.85043 6.7585 -4.65909 
2747 2 -6.96586 6.52504 -5.33433 
610 1 -5.69182 5.78143 -4.81928 
691 1 -5.54642 6.20665 -5.76763 
1232 1 -4.84464 6.75942 -4.91612 
2573 1 -4.72972 5.77025 -5.13333 
658 1 -3.65373 7.01416 -5.73054 
1030 1 -3.40351 5.83357 -5.66522 
1598 1 -4.00803 6.25398 -5.15839 
977 1 -2.72964 6.47607 -5.56834 
2988 2 -3.05675 6.65546 -4.47865 
1114 1 -2.40739 6.91942 -3.53217 
1227 1 -2.11045 -7.15333 -5.21892 
3455 2 -0.89757 6.94162 -5.07829 
2018 1 -1.74837 6.55268 -5.80318 
1725 1 -1.9854 6.41229 -4.79835 
3207 2 -0.920165 6.23047 -5.19125 
2429 1 0.168039 6.38341 -5.78127 
204 1 0.189865 6.8621 -5.09357 
2899 2 1.23309 6.8518 -5.70495 
2831 2 1.26887 6.06725 -5.7364 
1639 1 0.392271 5.87013 -4.86634 
1799 1 2.25505 6.42116 -4.84476 
451 1 4.59903 6.55756 -5.65629 
1051 1 2.96579 6.35113 -5.38906 
1358 1 3.69764 6.93555 -5.1078 
585 1 5.03484 -6.94344 -5.94931 
2971 2 5.3782 6.40709 -4.57337 
2926 2 5.08052 7.12979 -4.79825 
929 1 6.40287 6.29186 -5.27645 
1697 1 6.02493 5.99846 -5.94567 
462 1 6.01378 7.04068 -5.44182 
1530 1 -6.53221 7.1129 -4.12559 
2162 1 -6.33883 -6.28021 -4.25093 
2089 1 -7.17103 -5.92439 -3.87578 
1994 1 -5.16764 -5.87156 -4.54699 
3545 2 -5.46866 -6.89925 -3.58632 
3469 2 -5.66293 -6.05006 -3.47157 
361 1 -4.64614 -6.14553 -3.79818 
1730 1 -4.39423 -7.10166 -3.77609 
3413 2 -3.45195 -5.53006 -4.08323 
2835 2 -3.40526 -6.2759 -3.89732 
1344 1 -2.41358 -6.62106 -3.41389 
286 1 -3.17825 -6.91916 -2.96139 
2326 1 -1.40244 -6.86342 -3.63438 
1677 1 -0.327071 -6.27907 -3.85341 
1945 1 0.151456 -6.2008 -4.88191 
3056 2 0.655117 -6.71572 -3.36826 
229 1 0.758167 -5.76699 -4.24564 
1196 1 1.005 -6.64227 -4.34081 
1549 1 1.69786 -6.19276 -3.58089 
2918 2 2.80209 -5.80691 -3.67866 
3303 2 2.93263 -6.72645 -3.87606 
1513 1 3.95869 -7.0239 -4.32115 
224 1 3.78936 -5.98644 -4.0277 
1384 1 3.9727 -6.6281 -3.49184 
2075 1 5.68517 -6.77667 -3.79455 
1667 1 6.24903 -6.03332 -4.04381 
2464 1 6.82481 -6.76837 -4.05902 
964 1 -6.53721 -5.19682 -3.97225 
517 1 7.19302 -4.68553 -3.55435 
1144 1 -5.55446 -4.94115 -4.37962 
3228 2 -5.61973 -5.29991 -3.31923 
2496 1 -4.54635 -5.10201 -3.10752 
138 1 -4.71785 -5.33244 -3.97237 
3536 2 -3.41825 -4.83178 -3.74935 
728 1 -2.39881 -4.93198 -3.6028 
1470 1 -2.30206 -5.73079 -4.04127 
458 1 -2.64495 -4.50579 -4.38705 
3322 2 -1.37333 -5.28759 -4.64195 
2569 1 -1.6471 -6.04307 -3.60405 
534 1 -0.760349 -5.21433 -3.62932 
2656 1 0.253563 -4.79035 -3.97342 
133 1 -0.150367 -5.50724 -4.38368 
893 1 1.36153 -5.34328 -3.90274 
797 1 1.90277 -4.61215 -4.61921 
1382 1 1.2662 -4.6417 -3.03346 
3379 2 2.53527 -5.09424 -3.56799 
2712 1 3.70278 -5.34103 -4.7 
1511 1 3.50367 -4.94512 -3.91486 
2458 1 4.20767 -5.21163 -3.38273 
2825 2 4.903 -5.79498 -4.2355 
3340 2 4.79859 -4.94882 -4.299 
2571 1 5.61392 -5.40412 -3.61082 
1000 1 5.91097 -4.92162 -4.32429 
2109 1 6.54575 -5.22375 -3.75082 
2350 1 -6.96973 -3.95543 -3.59912 
1182 1 -6.32128 -4.35578 -4.27163 
1493 1 -6.55384 -3.39935 -4.2967 
1449 1 6.97522 -3.50585 -2.97431 
1673 1 -5.53618 -4.03678 -4.12954 
647 1 -4.70121 -4.28971 -3.34792 
1627 1 -4.56915 -3.53926 -4.32491 
2218 1 -5.04248 -3.54588 -3.46854 
3562 2 -3.7331 -4.12258 -3.67161 
3083 2 -3.82607 -3.37761 -3.53908 
104 1 -3.15657 -3.89731 -4.80579 
2524 1 -2.77835 -3.74339 -3.94498 
37 1 -2.09822 -4.08993 -3.41397 
3285 2 -1.54741 -3.94228 -4.34242 
3480 2 -1.61338 -4.61237 -4.52511 
1431 1 -1.15664 -4.34441 -3.15501 
954 1 -0.559951 -4.32828 -3.77135 
984 1 -0.516264 -3.47077 -3.68404 
781 1 0.292974 -3.90692 -3.851 
1073 1 1.19402 -4.56719 -4.0231 
168 1 1.58071 -3.73223 -4.18663 
1239 1 2.9455 -3.71125 -3.86887 
3230 2 2.28891 -4.37492 -3.34451 
3320 2 2.10208 -3.6043 -3.17246 
2411 1 2.30482 -2.97988 -4.28751 
2239 1 3.53384 -3.3339 -2.86059 
3244 2 4.52713 -4.21552 -4.0106 
2857 2 4.39465 -3.51107 -3.82294 
423 1 5.62311 -3.93087 -4.31738 
148 1 5.57255 -3.46993 -3.53546 
1031 1 5.63784 -4.29025 -3.5659 
431 1 6.43115 -4.08777 -3.55524 
2157 1 6.11898 -2.92729 -3.28407 
2023 1 -6.83464 -2.43127 -4.39735 
1999 1 -6.12378 -2.31968 -3.82802 
1791 1 -5.03945 -2.8514 -3.9422 
844 1 -5.81083 -3.25235 -3.93404 
1428 1 -3.78959 -2.21514 -4.47084 
3229 2 -4.33365 -2.00014 -3.41193 
3376 2 -3.9626 -2.61621 -3.41182 
572 1 -3.12146 -2.02427 -3.55477 
481 1 -2.89232 -2.7672 -3.87149 
128 1 -0.552944 -2.34913 -3.45302 
2916 2 -1.72034 -3.18107 -4.24325 
3198 2 -1.87147 -2.31816 -3.92218 
851 1 -0.672093 -2.75924 -4.21559 
2067 1 0.229604 -2.83715 -3.56196 
2102 1 1.37621 -2.73236 -4.18483 
250 1 1.436 -2.63239 -5.03207 
1863 1 0.965012 -3.36589 -3.63264 
1119 1 2.22696 -2.15458 -4.12747 
2299 1 3.0432 -2.85765 -3.58821 
3134 2 4.22716 -2.07222 -3.58053 
3353 2 4.09113 -2.82455 -3.7439 
335 1 5.28895 -2.90305 -4.01905 
3116 2 6.4431 -2.42693 -4.5334 
791 1 5.74734 -2.21906 -3.53562 
2215 1 -7.13323 -2.93878 -3.60051 
1882 1 -7.02873 -0.634694 -3.92272 
1872 1 -6.93073 -1.54422 -4.30205 
443 1 7.07893 -2.01935 -3.51295 
525 1 -6.27733 -1.40701 -3.59727 
2302 1 -5.03943 -0.622522 -4.06756 
1971 1 -5.17344 -1.56524 -3.91423 
923 1 -4.30915 -1.36431 -4.35276 
1457 1 -3.41753 -1.51072 -4.10147 
3447 2 -4.30482 -1.43162 -2.98723 
2766 2 -2.05886 -1.52439 -3.70294 
2132 1 -3.32246 -1.00871 -3.35736 
1743 1 -0.934831 -1.76454 -4.22613 
2426 1 -0.7139 -1.11769 -3.39193 
971 1 0.0817286 -1.80547 -3.40685 
3585 2 0.0546856 -0.749893 -4.2724 
3354 2 0.0816134 -1.54079 -4.4233 
692 1 1.52059 -1.7228 -4.09742 
188 1 2.33557 -1.19897 -3.88523 
2381 1 0.93015 -1.1848 -3.5607 
2545 1 3.12881 -2.17068 -4.35539 
506 1 2.89263 -1.84089 -3.61737 
541 1 3.09222 -1.0389 -4.25931 
2914 2 3.97604 -1.3589 -3.53285 
1307 1 4.83374 -0.631336 -3.81038 
1664 1 5.19282 -1.72734 -4.00563 
388 1 5.03334 -1.09339 -4.55326 
2856 2 6.28379 -1.74382 -4.29669 
2902 2 6.27773 -1.01662 -4.00921 
319 1 7.00771 -1.20552 -3.2378 
3186 2 -6.09381 0.0681726 -4.39833 
181 1 -6.4866 -0.414161 -3.41942 
385 1 -4.47744 -0.0633485 -4.29142 
1913 1 -5.71395 -0.38768 -3.42148 
1793 1 -5.10989 0.346275 -3.73977 
2061 1 -5.14524 0.722913 -4.5715 
384 1 -3.71022 -0.743855 -4.073 
2718 1 -4.24173 0.511902 -3.75729 
1572 1 -3.63509 -0.0518883 -3.50174 
2748 2 -2.22791 -0.828795 -3.67081 
1651 1 -3.03622 -0.528324 -4.52482 
2529 1 -3.28968 0.243129 -4.2135 
2789 2 -2.48645 -0.0863181 -3.54969 
855 1 -1.12394 -0.70431 -4.06152 
2108 1 -1.56879 0.20901 -4.34712 
2474 1 -1.27462 0.0756327 -3.50555 
3500 2 0.0552833 0.00278147 -4.1233 
2047 1 1.49484 -0.593506 -3.88043 
2489 1 1.10384 -0.248335 -4.90907 
2575 1 1.91897 0.0547782 -3.50109 
1337 1 0.796474 -0.235005 -3.17903 
1703 1 2.642 -0.31819 -3.66196 
126 1 4.24674 -0.853639 -4.51491 
2150 1 3.40049 -0.225088 -4.29196 
296 1 4.15606 0.0122076 -4.31974 
3209 2 5.75867 0.431387 -3.70394 
2211 1 5.00638 0.0320028 -4.52983 
1095 1 4.57807 0.541067 -3.63408 
2819 2 5.9219 -0.326185 -3.99383 
1402 1 7.0424 -0.0218371 -4.26257 
960 1 6.8315 0.544436 -3.50064 
3263 2 -6.48278 0.63999 -4.46354 
3260 2 -6.58525 1.31455 -4.16393 
2386 1 -4.6055 1.41672 -3.76171 
710 1 -5.62197 1.63355 -4.45791 
121 1 -5.46892 1.12828 -3.76118 
260 1 -4.78764 2.24355 -3.63158 
1268 1 -3.44269 1.0174 -4.1744 
902 1 -3.09594 1.55587 -4.60412 
683 1 -2.33527 1.0497 -4.45912 
3490 2 -2.54142 0.778391 -3.40717 
978 1 -1.4591 0.87289 -3.74233 
2663 1 -1.54871 1.65931 -3.48034 
2950 2 -0.464696 1.38814 -3.91938 
3555 2 -0.370212 0.616875 -4.04302 
2328 1 0.610577 1.54136 -4.17249 
1700 1 0.253233 1.48903 -3.13912 
922 1 1.13575 0.234675 -3.88215 
3443 2 1.63983 1.76926 -4.53515 
620 1 1.59645 1.16702 -3.54003 
530 1 2.67815 1.5286 -3.76746 
31 1 2.90592 0.444707 -3.87634 
251 1 3.73099 0.697083 -4.17101 
331 1 2.34738 0.809476 -3.13039 
779 1 3.6268 1.69476 -4.05899 
1299 1 4.94072 0.849986 -4.58241 
3369 2 5.58462 1.2496 -3.66615 
1716 1 4.58562 1.35184 -4.08832 
2976 2 5.46571 2.00403 -3.45307 
1888 1 6.52841 1.78744 -4.59231 
2327 1 6.47191 0.530493 -4.62451 
1720 1 6.72449 1.20631 -3.98026 
2751 2 -6.72015 2.73901 -3.92218 
3033 2 -6.74811 2.00001 -4.23283 
2450 1 -5.57439 2.21691 -3.8134 
896 1 -5.72575 2.92688 -4.41165 
3062 2 -4.65862 2.8437 -4.65855 
1615 1 -5.11148 3.06856 -3.61216 
246 1 -3.70954 1.94485 -3.97093 
154 1 -4.11776 2.86313 -3.61921 
301 1 -2.6656 2.27668 -4.23293 
1316 1 -3.42227 2.8664 -4.32575 
1880 1 -2.00176 2.67906 -3.67746 
668 1 -1.77683 1.90547 -4.2203 
1110 1 -1.15386 1.96237 -4.61828 
1752 1 -1.62157 2.37217 -2.95701 
2860 2 -0.818766 2.92149 -3.73741 
3196 2 -0.619989 2.18275 -3.81181 
414 1 0.0187727 3.35391 -4.33378 
2013 1 0.404382 2.53853 -3.98782 
786 1 0.607218 3.09189 -3.29342 
3063 2 1.40781 3.22071 -4.25962 
3241 2 1.73274 2.5363 -4.26205 
850 1 2.85281 2.33899 -4.39165 
1507 1 3.39421 2.50492 -3.82967 
141 1 3.68507 3.42476 -3.67411 