ITEM: TIMESTEP
17500
ITEM: NUMBER OF ATOMS
3594
ITEM: BOX BOUNDS pp pp pp
-7.2034812275692364e+00 7.2034812275692364e+00
-7.2034812275692364e+00 7.2034812275692364e+00
-7.2034812275692364e+00 7.2034812275692364e+00
ITEM: ATOMS id type x y z 
2051 1 -6.51845 -6.7343 -6.46247 
1437 1 -6.11525 6.90903 -6.62849 
1610 1 -5.81277 -6.32382 -6.69432 
3520 2 -4.81917 -6.50565 -6.01532 
262 1 -4.69623 -6.46651 -7.09625 
1654 1 -3.9012 -6.97515 -6.60533 
601 1 -4.64416 -5.57707 -6.75217 
2727 1 -3.94718 -6.00882 -6.13922 
2944 2 -2.75884 -6.48563 -6.43643 
1210 1 -1.67339 -6.22819 -6.85593 
448 1 -1.56124 -6.91175 6.84132 
3368 2 -0.371349 -6.79231 6.99261 
2018 1 -1.55476 -7.04965 -6.69993 
1088 1 1.0431 -5.88543 -6.69462 
1333 1 0.840782 -6.80247 -6.85352 
2415 1 1.73233 6.94012 -6.69752 
1073 1 1.61889 -6.47691 -6.63633 
686 1 2.56451 6.52397 -6.24241 
2623 1 2.6026 -6.50029 -6.94321 
2957 2 3.1265 -5.52729 -6.11719 
245 1 2.05893 -6.06049 -6.15191 
3442 2 3.14943 -6.40594 -5.91337 
645 1 4.26202 -6.17895 -6.54451 
3208 2 5.77342 -6.26425 -6.89666 
2787 2 5.86109 -7.17703 -7.14127 
1263 1 -7.17896 7.05808 -6.84232 
2045 1 7.08924 -5.90672 -6.51121 
1246 1 -6.58728 -5.76376 -6.24543 
1282 1 -6.3733 -4.89937 -6.03232 
3366 2 -6.62394 -5.20717 7.12394 
2122 1 -4.8918 -4.78224 -6.87283 
3325 2 -5.2094 -5.12783 -5.72898 
318 1 -5.7949 -5.50889 -6.62354 
977 1 -4.28058 -4.83196 -6.16509 
1184 1 -3.90012 -4.45545 -6.88782 
1087 1 -4.607 -3.98441 -6.48909 
3574 2 -2.80836 -5.62735 -6.35082 
2981 2 -3.01986 -4.85037 -6.25192 
995 1 -1.99319 -4.55258 -6.50954 
2543 1 -0.927809 -5.96398 -6.15661 
3019 2 -0.522261 -6.07811 -7.12993 
3484 2 -0.783191 -5.19367 -7.03921 
722 1 -1.16498 -5.01215 -5.97823 
527 1 0.112712 -6.41657 -6.20178 
579 1 0.231318 -5.55179 -6.34888 
2368 1 0.546174 -5.71383 6.89603 
1905 1 1.07783 -4.98856 -6.55803 
1425 1 1.7708 -4.66735 -6.03141 
2933 2 3.01324 -4.80422 -5.98237 
2379 1 2.19293 -5.33871 -6.78413 
1215 1 4.13264 -5.21279 -6.3449 
1770 1 3.4074 -4.81384 -7.02723 
2590 1 2.6813 -5.67009 7.08902 
638 1 3.91725 -5.59609 -7.11562 
2812 2 5.33652 -5.71304 -6.73152 
3212 2 5.23015 -4.8783 -6.63091 
1526 1 6.38895 -5.92415 -6.13573 
639 1 7.1382 -5.07526 -6.12136 
10 1 6.40915 -4.90833 -6.73682 
1362 1 6.15132 -5.22201 -5.85308 
2479 1 6.01065 -4.30135 6.97446 
304 1 -6.92925 -4.22836 -5.69523 
3495 2 -7.03752 -4.51565 -7.20162 
1459 1 -6.30972 -3.96609 -6.28335 
923 1 -5.4253 -3.93381 -6.585 
1918 1 -5.7074 -4.62772 -6.90711 
3041 2 -3.48251 -3.18766 -6.05229 
386 1 -3.59275 -3.99793 6.91544 
3061 2 -3.29819 -4.00533 -6.15066 
37 1 -3.15336 -3.34693 7.11527 
128 1 -2.36305 -3.93311 -7.04296 
2808 2 -0.981789 -4.31579 -6.90346 
842 1 -0.261942 -4.46061 -6.10356 
2105 1 -0.587531 -3.42556 -5.81955 
2589 1 -0.0496773 -3.60271 -6.34437 
40 1 0.640384 -4.15997 -6.49689 
502 1 0.535338 -3.19928 -6.15996 
1738 1 1.18325 -2.19736 -5.5532 
2599 1 1.9551 -3.36837 -6.38422 
985 1 3.06458 -3.94736 -6.93514 
1168 1 2.0985 -4.3444 -6.7088 
2407 1 3.95339 -4.14992 -6.93557 
388 1 3.66043 -3.44165 -5.96535 
3266 2 5.15604 -4.19276 -6.33124 
2767 2 4.85729 -3.46115 -6.24111 
3029 2 7.03397 -3.84108 -6.88872 
1372 1 5.99281 -3.72605 -6.84224 
2015 1 6.47615 -4.37372 -6.0358 
1354 1 -6.7164 -3.00878 -6.01311 
1078 1 -6.23794 -3.31205 -6.92788 
1671 1 -4.74388 -3.21569 -6.09224 
1581 1 -5.60447 -3.13511 -6.39544 
2699 1 -4.13538 -3.3288 -6.8485 
1445 1 -4.5462 -2.31606 -6.51167 
1370 1 -3.56638 -2.6735 -7.16978 
2289 1 -2.99897 -2.01686 -6.82993 
821 1 -2.48111 -3.20155 -6.53135 
433 1 -2.18655 -1.63169 -7.11819 
3332 2 -1.27976 -3.55666 -6.76358 
3234 2 -1.29102 -2.692 -6.59455 
1094 1 -0.262122 -3.19848 -7.17238 
1767 1 -0.136523 -2.5404 -6.64066 
250 1 0.371013 -2.26781 -6.0468 
1946 1 -0.425973 -2.34224 7.00292 
2804 2 0.896231 -2.26022 -6.91925 
3347 2 0.981472 -3.00521 -7.15873 
2178 1 2.02982 -2.41273 -6.32049 
1834 1 3.08492 -3.21274 -6.63717 
1976 1 3.90872 -3.30092 -6.89389 
2500 1 4.07179 -2.45114 -7.08072 
1859 1 3.51566 -2.55468 -6.26523 
3550 2 4.48739 -2.73897 -6.11077 
2360 1 5.72197 -2.75032 -6.65755 
2975 2 7.03962 -3.13964 -6.96487 
802 1 6.09757 -3.51926 -5.83262 
3126 2 6.81009 -2.37235 -6.88576 
670 1 -6.27299 -2.51634 -6.46624 
2126 1 -6.57677 -1.28694 -6.84956 
194 1 -6.19871 -0.706887 -6.12561 
1392 1 -5.47127 -2.28366 -6.26496 
2578 1 -4.67567 -1.38482 -6.40091 
395 1 -3.88531 -1.71597 -6.84651 
2677 1 -4.2261 -1.41637 6.68754 
900 1 -2.97425 -1.1044 -6.55301 
902 1 -2.31865 -0.42808 -6.87072 
174 1 -2.94306 0.165346 -6.50859 
3105 2 -1.44502 -1.81056 -6.44167 
3200 2 -1.55306 -1.1005 -6.09714 
2108 1 -0.387846 -1.65937 -6.77714 
84 1 1.50953 -1.55873 -5.97367 
3151 2 0.605692 -1.29847 -6.73067 
1938 1 1.6802 -0.573832 -7.03306 
42 1 2.07138 -0.473962 -6.26773 
3088 2 0.551353 -0.547257 -6.73482 
2558 1 2.84935 -2.1133 -6.56895 
366 1 2.74667 -1.27603 -6.10449 
3195 2 2.75596 -0.637771 7.09391 
1374 1 1.9403 -1.54976 -6.73962 
2617 1 3.79557 -1.70586 -6.60613 
1111 1 3.45131 -0.820785 -6.37227 
2995 2 4.58014 -1.28605 -5.86953 
2972 2 4.81502 -2.08151 -6.14457 
377 1 5.70659 -1.86948 -6.4465 
2477 1 4.76818 -0.76208 -6.88409 
1414 1 5.46572 -0.969497 -6.42845 
2183 1 4.88011 -1.92779 -7.1919 
3087 2 6.77063 -1.633 -6.62672 
1806 1 5.52381 -1.35719 -7.13718 
2510 1 -6.62662 -0.305051 -6.68884 
253 1 -7.09815 -0.372068 -5.44338 
3097 2 -5.59578 -0.669961 -7.15231 
3127 2 -5.6342 0.171514 -6.87536 
1457 1 -3.64535 -0.772129 -6.57642 
2300 1 -4.64025 -0.489086 -6.14232 
1815 1 -3.85508 0.120526 -6.44241 
1027 1 -4.59834 0.440069 -6.93196 
1745 1 -2.22938 0.491199 -6.96018 
1993 1 -0.728734 -0.850534 -6.99112 
1265 1 -1.26184 -0.186265 -6.9392 
75 1 -0.541321 -0.033273 -6.12592 
28 1 -0.437618 -0.839372 -6.1122 
3311 2 0.416249 0.161193 -6.64704 
2928 2 0.281922 0.917751 -6.268 
603 1 -0.286927 -0.345782 7.07451 
2329 1 -0.613497 0.685632 -7.15646 
1241 1 1.55023 0.257532 -6.79243 
1713 1 1.50809 0.701255 -5.99447 
2960 2 2.62858 0.254812 -6.97325 
530 1 2.36129 0.274879 -5.83857 
2535 1 3.50689 0.652603 -6.33755 
1997 1 1.42719 1.59764 -5.94616 
1698 1 3.12768 -0.124958 -5.88302 
1895 1 4.2937 1.02196 -6.3908 
565 1 4.69948 0.205152 -6.54809 
263 1 5.6239 -0.245644 -7.07974 
2072 1 5.1888 0.713809 -6.32528 
2840 2 6.79912 -0.76689 -6.64055 
2797 2 6.55682 -0.0277943 -6.17816 
2151 1 -6.81254 1.12388 -5.95342 
3140 2 -5.79731 1.6457 -6.51351 
571 1 -6.95762 0.46848 -6.55872 
1229 1 -6.45461 1.97739 7.14032 
3007 2 -5.81474 0.876735 -6.62292 
2386 1 -4.77007 1.37534 -6.74732 
2180 1 -3.80843 0.810509 -6.16088 
499 1 -4.74988 1.05024 -5.91298 
2560 1 -4.44824 1.85926 -6.16366 
3148 2 -3.50177 1.28737 -7.09119 
743 1 -2.74506 1.09017 -6.25507 
1238 1 -2.99645 1.99937 -6.33088 
1116 1 -2.40183 1.61524 -6.83934 
337 1 -1.4746 0.799847 -6.7057 
1978 1 -0.837148 1.84959 -6.5265 
1353 1 -1.66821 1.70059 -6.46658 
3078 2 0.291477 1.7044 -5.98193 
1368 1 1.1709 2.30621 -6.55326 
171 1 1.33951 1.42498 -6.85169 
221 1 1.31618 2.39084 -5.75374 
3459 2 2.42935 1.03064 -6.78079 
3393 2 2.4653 1.84984 -6.58377 
850 1 4.79147 1.53135 -6.14748 
1185 1 3.4245 1.77482 -6.07567 
2380 1 3.51055 1.42535 -6.95896 
2086 1 5.78394 0.611303 -7.09657 
1927 1 5.36419 1.52524 -6.6853 
3135 2 6.36422 0.822882 -6.12358 
1684 1 -7.16493 1.75086 -6.61341 
3465 2 -5.99413 2.42752 -6.35446 
141 1 -4.97775 2.50445 -6.24706 
2200 1 -5.23674 3.59718 -6.38903 
1335 1 -5.05795 3.10158 -5.59869 
3093 2 -3.74881 2.09072 -7.09081 
2783 2 -3.83858 2.78818 -7.0032 
732 1 -2.77405 3.02193 -6.67558 
561 1 -3.4338 2.52655 -5.82104 
1894 1 -2.107 2.45992 -6.48692 
2508 1 -0.857512 2.66785 -6.68777 
1744 1 -1.31707 2.6297 -5.85806 
3444 2 -0.0475862 2.37295 -5.86951 
2000 1 0.753169 2.87619 -6.78732 
1098 1 1.06544 3.25561 -5.99932 
3478 2 2.10935 3.30457 -6.34113 
3417 2 2.29342 2.54256 -6.54844 
50 1 4.20792 2.17021 -6.17623 
1889 1 3.31889 2.70605 -5.86891 
2765 2 4.2008 3.34705 -6.91047 
1113 1 4.05898 3.10608 -5.92258 
2276 1 3.39746 2.38165 -6.784 
889 1 6.08143 1.50686 7.13049 
1515 1 5.40536 2.53884 -6.56827 
1584 1 -7.15355 3.40572 -6.64065 
122 1 7.17242 2.56683 -6.6124 
131 1 6.24711 2.26822 -6.84973 
2736 2 -6.19599 3.20375 -5.94368 
1760 1 -6.68769 3.62766 6.99153 
3238 2 -6.46491 4.0178 -5.96418 
1879 1 -6.20529 4.48614 -7.00463 
1318 1 -6.04311 3.58046 -7.03283 
3408 2 -4.25444 3.22215 -6.55568 
3411 2 -3.99403 3.97301 -6.51703 
343 1 -3.23216 3.46406 -5.94915 
1030 1 -2.89417 3.82423 -6.85421 
715 1 -2.50166 4.34422 -6.08375 
1932 1 -0.248107 3.15118 -7.06408 
989 1 -2.10692 3.42684 -6.31708 
1499 1 -1.15087 3.40699 -6.21422 
883 1 -1.5598 4.36515 -6.05091 
474 1 0.202189 3.73119 -6.8419 
1016 1 1.06338 3.71687 -6.81367 
3138 2 1.92876 4.81811 -6.10013 
849 1 0.691036 4.91825 -6.16059 
588 1 2.90978 3.47365 -5.52937 
3466 2 2.00468 4.18181 -6.31924 
614 1 3.20921 3.26335 -6.51599 
1066 1 3.08457 4.0829 -6.67253 
3551 2 4.26081 4.13335 -6.98598 
2305 1 5.48469 3.31985 -6.78473 
2066 1 5.04135 3.24254 -6.09125 
404 1 5.37843 4.10669 -6.71959 
2594 1 6.32467 3.23205 -6.63187 
248 1 6.25123 3.96609 -6.279 
577 1 7.17181 4.30124 -6.67696 
66 1 -6.45906 5.5821 -6.92284 
2396 1 -5.47054 5.20771 -5.91877 
1669 1 -5.7438 5.32241 -6.97836 
3471 2 -4.34946 4.71827 -6.6284 
233 1 -3.71886 5.97018 7.13356 
59 1 -3.09356 4.78712 -6.83295 
2832 2 -2.19559 5.41 -6.95934 
287 1 -2.36474 5.13533 -5.82005 
597 1 -0.846024 5.2476 6.94265 
2839 2 -1.74873 4.68314 -6.94474 
1652 1 -0.860122 5.73357 -6.62869 
1253 1 -0.958807 4.84774 -6.37428 
2630 1 0.0530252 5.941 -6.46023 
2626 1 0.0379282 4.85125 -6.7117 
2429 1 0.846633 5.73487 -6.60662 
2831 2 1.84067 5.59083 -5.98065 
1141 1 0.595474 5.6371 -5.4461 
1923 1 2.54515 4.85725 -7.16198 
295 1 3.1222 4.97397 -6.29591 
3223 2 4.15211 5.18594 -6.85182 
2790 2 3.9592 5.92995 -6.63026 
1247 1 4.86679 5.16441 -6.01295 
2160 1 4.83882 6.0041 6.68041 
112 1 6.46259 4.82862 -6.20549 
795 1 5.58281 4.9228 -6.54135 
1530 1 6.86642 5.52302 -6.64741 
2905 2 6.08681 5.7735 6.94964 
1954 1 6.76612 6.316 -6.54319 
558 1 -6.73779 6.28636 -6.78672 
1004 1 -5.73184 6.05949 -6.30231 
3463 2 -4.43514 5.53775 -6.41216 
1415 1 -5.33585 7.17959 -6.97474 
3150 2 -4.68602 6.29579 -6.21175 
2002 1 -3.54849 6.49197 -6.65447 
3454 2 -2.45752 6.26681 -6.84266 
3268 2 -2.60621 7.14829 -6.67035 
345 1 -1.38538 6.53001 -7.06773 
658 1 -1.76776 7.02647 -5.77466 
1394 1 -1.67754 6.23148 -6.02065 
741 1 -1.57865 5.51976 6.54106 
1702 1 -0.839279 6.57652 -6.32747 
798 1 0.159505 6.97143 -6.45577 
1709 1 0.21435 6.44707 -5.74394 
2322 1 0.929962 6.49992 -6.91451 
725 1 1.8632 6.07943 -6.94767 
2899 2 1.45018 6.23757 -5.87145 
2669 1 3.04376 5.97835 -5.91615 
3569 2 3.81894 6.65747 -6.52283 
3587 2 3.49652 -7.02874 -6.32554 
244 1 5.89011 5.72109 -6.28367 
805 1 4.80248 6.64815 -7.11028 
1295 1 4.74557 6.06479 -5.88337 
2088 1 5.04298 5.91651 -6.87758 
2136 1 6.16719 6.63674 -5.83273 
3539 2 5.95667 6.48758 7.0979 
2023 1 -6.05205 -6.42929 -5.69809 
1893 1 -5.6712 -6.95928 -4.97783 
2747 2 -7.03778 -7.02235 -5.50372 
3477 2 -4.84845 7.14228 -6.02461 
1772 1 -4.59095 -6.93749 -4.53266 
1481 1 -5.18032 -6.39514 -4.81202 
1148 1 -4.61862 -5.57162 -4.21881 
1725 1 -4.13668 -6.86128 -5.1735 
1344 1 -3.23943 -5.92709 -5.49124 
1227 1 -3.64565 6.86956 -5.95151 
1691 1 -3.50341 -6.75296 -5.65555 
1252 1 -2.45123 -6.62201 -5.36831 
520 1 -1.71439 -6.57615 -5.91334 
3594 2 -1.06755 -6.48357 -5.04438 
1567 1 -0.0697777 -7.16458 -5.50654 
1881 1 -0.0330541 -6.30974 -5.44048 
3128 2 1.12622 -6.79086 -5.50222 
2826 2 1.0399 -5.97465 -5.51903 
1249 1 1.81913 -6.47588 -4.52096 
862 1 3.00861 -6.51479 -4.8591 
1992 1 3.73517 -7.09627 -5.06409 
224 1 3.5785 -5.86364 -4.88274 
1689 1 2.24831 -6.96909 -5.1744 
1175 1 2.17688 -7.02591 -5.93447 
281 1 4.25047 -6.35712 -5.52397 
209 1 5.83933 -6.9725 -5.93958 
3290 2 4.85806 -5.87882 -4.39149 
329 1 4.92731 -6.88358 -6.33503 
3487 2 -7.15496 -6.22645 -5.2316 
317 1 6.59958 -6.72954 -6.25918 
1000 1 6.02018 -6.20234 -5.15877 
538 1 6.32871 -7.00124 -5.00143 
355 1 -6.19689 -5.53166 -5.2552 
1718 1 -6.31854 -6.21249 -4.58444 
3416 2 -5.12604 -5.85996 -5.78615 
2912 2 -5.47651 -4.40776 -5.57002 
1733 1 -4.60947 -4.98462 -4.86218 
1361 1 -3.9968 -5.33093 -5.51802 
1885 1 -4.41803 -5.9556 -5.02802 
2350 1 -2.75727 -4.99515 -4.87541 
1582 1 -1.713 -5.75599 -5.97474 
1836 1 -2.18386 -4.75836 -5.64216 
2453 1 -2.31494 -5.67698 -5.16044 
1643 1 -0.725929 -6.91501 -6.02305 
3322 2 -1.22567 -5.67536 -4.94504 
3480 2 -1.43357 -4.80984 -4.93475 
2491 1 -0.405712 -5.57266 -5.67 
15 1 -0.0839913 -5.38727 -4.86178 
3068 2 0.868607 -5.21503 -5.49457 
2256 1 2.09298 -5.3538 -5.47107 
1998 1 1.61032 -5.56817 -4.56504 
1075 1 2.89748 -5.58758 -4.81586 
1695 1 4.05128 -4.4659 -6.17492 
2462 1 4.60457 -5.59022 -5.561 
628 1 5.27645 -6.20841 -5.63019 
589 1 4.62788 -4.75898 -5.59139 
1320 1 5.63792 -4.88242 -4.72119 
1724 1 5.38794 -5.29622 -5.49362 
2825 2 4.63662 -5.15538 -4.37777 
2828 2 6.89528 -5.40286 -5.21092 
85 1 5.98941 -5.63122 -4.48338 
2106 1 -6.52235 -4.6632 -5.2311 
1325 1 -6.78052 -3.49913 -5.1183 
2737 2 -5.72759 -3.73394 -5.5476 
1609 1 -4.77719 -3.95391 -4.71228 
1784 1 -4.45431 -4.20012 -5.65028 
1071 1 -4.4546 -3.35062 -5.2748 
2248 1 -3.48671 -4.71347 -5.21833 
2426 1 -2.03137 -3.8159 -5.96075 
909 1 -2.59286 -4.18935 -5.25104 
1979 1 -2.57977 -3.29754 -5.42045 
139 1 -1.09607 -3.18429 -5.28987 
2238 1 -1.33811 -4.10108 -5.80115 
1722 1 -0.416803 -4.64894 -5.40775 
3227 2 0.385178 -3.8274 -5.19677 
799 1 1.38353 -3.9022 -6.12751 
2113 1 1.98391 -4.74674 -4.93475 
2768 2 0.755691 -4.41891 -5.36415 
1611 1 1.52385 -3.02342 -5.86351 
3249 2 2.78452 -4.12062 -5.92783 
891 1 1.87251 -3.98246 -5.30891 
3014 2 2.70193 -3.31113 -5.65114 
1863 1 2.62258 -3.96708 -4.49846 
2150 1 3.88506 -5.04975 -5.26909 
1385 1 3.96341 -4.16292 -5.32528 
2145 1 3.45282 -3.62999 -4.77531 
2656 1 5.02714 -4.11169 -5.0536 
452 1 5.75566 -4.39851 -5.4427 
1034 1 5.44514 -3.57223 -4.3316 
3010 2 6.87881 -4.63544 -4.953 
3080 2 6.61553 -3.79497 -4.87079 
351 1 -6.76929 -1.99835 -5.86956 
831 1 -6.86457 -2.60101 -4.84888 
1800 1 -4.68566 -2.52549 -5.23739 
2890 2 -5.84095 -3.04229 -5.33149 
2974 2 -5.86328 -2.34664 -5.14163 
1465 1 -3.75799 -3.97441 -5.1393 
477 1 -4.05755 -2.02586 -4.65609 
2869 2 -3.66041 -2.34535 -5.81779 
2844 2 -3.7162 -1.49915 -5.69937 
1790 1 -2.77227 -2.49942 -5.04519 
1953 1 -1.89371 -2.03896 -5.34328 
484 1 -2.54385 -2.42716 -6.1665 
2139 1 -1.79083 -2.8388 -5.71431 
2480 1 -1.10842 -2.25594 -5.23502 
851 1 -0.48853 -2.69594 -5.74626 
3430 2 0.364575 -2.96084 -5.21284 
3354 2 0.250356 -2.40144 -4.7491 
2187 1 1.02507 -1.39046 -5.24848 
247 1 1.41341 -2.99273 -5.09107 
2830 2 2.52825 -2.67125 -5.36568 
3356 2 2.40334 -1.97362 -5.28661 
480 1 3.34375 -2.54942 -4.64004 
1313 1 3.69196 -2.77581 -5.46628 
190 1 4.52473 -3.32627 -5.14781 
1472 1 3.53699 -1.82493 -5.64897 
153 1 4.37229 -2.44816 -4.99008 
72 1 5.0533 -2.68109 -4.73738 
734 1 5.34952 -3.40205 -5.27932 
659 1 7.01485 -3.42992 -5.8727 
1207 1 6.33693 -2.64629 -5.99338 
720 1 -7.03826 -1.16908 -5.79597 
2993 2 -6.06356 -1.61704 -5.1343 
3267 2 -6.05183 -0.837998 -5.01567 
83 1 -5.10691 -1.86168 -5.70588 
1340 1 -6.05942 -1.65627 -6.24283 
56 1 -4.69057 -1.41914 -5.09429 
3543 2 -3.87535 -0.669901 -5.46269 
2718 1 -2.66709 -1.39058 -5.90093 
1928 1 -3.16913 -1.79461 -4.77304 
1380 1 -2.54193 -1.30686 -5.16182 
1057 1 -0.41116 -1.73089 -5.84797 
1074 1 -1.5094 -1.25924 -4.99117 
1837 1 0.342921 -1.54953 -5.73114 
925 1 1.00779 -0.516436 -5.15204 
175 1 1.31599 -0.248418 -5.92136 
1777 1 0.227304 -0.555551 -5.61374 
3557 2 2.1669 -1.14665 -5.19008 
3449 2 2.0996 -0.34621 -5.0327 
110 1 3.81034 -1.75715 -4.91057 
2336 1 4.11844 -1.07248 -4.85199 
859 1 3.26821 -0.847625 -5.12533 
2352 1 5.63213 -2.4735 -5.55129 
1830 1 5.432 -0.611144 -5.11335 
656 1 5.58276 -1.41031 -5.4811 
148 1 4.8881 -1.67768 -4.90606 
346 1 6.35656 -1.73042 -5.57503 
2297 1 6.19494 -0.754189 -5.5628 
1145 1 6.92775 -1.04591 -5.13352 
3186 2 -6.11542 -0.132726 -4.81787 
2132 1 -5.00151 -0.674697 -4.94136 
2641 1 -5.35597 -1.03121 -6.00924 
90 1 -4.93193 0.189088 -5.9665 
1151 1 -5.69584 -0.247941 -5.75409 
408 1 -5.15696 0.309224 -5.13652 
3256 2 -4.07431 0.0864263 -5.25056 
3144 2 -4.1294 0.889332 -5.13246 
2077 1 -2.19001 -0.591265 -5.06175 
827 1 -2.75192 -0.444948 -5.89734 
969 1 -3.21116 -0.797259 -4.57855 
2605 1 -2.92551 0.0303616 -4.81896 
400 1 -0.829672 -0.202604 -5.15832 
2796 2 -1.63785 -0.135251 -5.89786 
1880 1 -1.16763 0.529311 -4.96339 
1618 1 -0.799977 -1.11696 -5.27596 
1432 1 -0.00720691 0.365021 -5.35145 
1890 1 0.840658 0.469436 -5.33975 
886 1 3.5101 0.762985 -4.28737 
3383 2 1.95766 0.539946 -4.97755 
2730 1 3.18352 0.965139 -5.66576 
236 1 3.12438 0.337315 -5.09917 
2848 2 4.24401 0.19834 -5.54013 
3317 2 4.24562 -0.520152 -5.63548 
140 1 5.35631 -0.258452 -6.05644 
823 1 4.98872 0.0373205 -4.66244 
1568 1 5.27463 1.23001 -5.3946 
1999 1 6.07275 -0.00516452 -5.11163 
1402 1 7.15872 0.514286 -5.39677 
1575 1 6.89135 -0.224352 -4.68704 
319 1 5.40203 0.385883 -5.48494 
1841 1 -6.36507 0.366436 -5.90008 
806 1 -6.19125 1.45829 -5.45615 
1369 1 -5.52935 0.945625 -5.62314 
443 1 -5.2148 1.93944 -5.57273 
1607 1 -5.55023 1.33256 -4.95914 
2320 1 -3.03915 1.13513 -5.26879 
3062 2 -4.39689 2.25175 -4.64308 
2861 2 -4.48418 1.52512 -4.73932 
580 1 -3.07764 0.378387 -5.70651 
2846 2 -2.05712 1.53933 -5.45738 
2208 1 -0.743851 1.01679 -6.04373 
2939 2 -1.9276 0.638463 -5.6155 
1775 1 -1.29524 1.55394 -4.68737 
867 1 -0.494468 1.13625 -5.13858 
1661 1 0.091355 1.90065 -4.95062 
2708 1 0.669122 2.08292 -4.24981 
2406 1 0.999842 1.39357 -5.09672 
1375 1 0.945034 2.32308 -5.13587 
970 1 2.26206 1.27319 -5.80571 
3443 2 2.06621 1.2751 -4.72663 
2575 1 3.0182 1.28904 -4.99362 
3364 2 4.16112 0.985028 -5.34466 
3388 2 4.18121 1.8037 -5.05919 
2068 1 5.22009 0.974566 -4.59953 
941 1 5.21021 1.94521 -4.50563 
2584 1 5.31259 2.06305 -5.37668 
3038 2 6.27256 1.57179 -5.95968 
2130 1 6.03624 1.65082 -4.78403 
1200 1 7.15078 1.49785 -4.98857 
2690 1 -6.86598 1.89207 -5.87066 
1169 1 -6.27403 2.98578 -4.73447 
13 1 -6.23808 2.19387 -5.17522 
92 1 -5.97683 3.53524 -4.03833 
928 1 -5.51391 2.5057 -4.9323 
2845 2 -4.49818 3.11075 -4.52393 
2523 1 -4.20085 2.54783 -5.67122 
1965 1 -3.27373 1.93765 -5.14188 
3456 2 -4.67132 3.84835 -4.54719 
2037 1 -3.71498 1.55866 -5.85956 
3117 2 -2.30782 2.32428 -5.44666 
1933 1 -1.02055 1.76726 -5.61515 
2489 1 -1.52786 2.52033 -4.72334 
46 1 -0.714646 2.35667 -4.97194 
2813 2 0.0393175 3.10205 -5.76143 
1763 1 0.0945005 2.80322 -4.63197 
2271 1 0.731458 3.09614 -4.96353 
673 1 2.00084 2.01949 -5.39423 
1286 1 2.88691 2.10953 -5.51189 
47 1 2.73934 2.19053 -4.59033 
785 1 2.18308 2.83988 -5.33296 
1644 1 2.50506 3.3043 -4.58533 
3433 2 3.79771 2.45282 -4.93472 
2327 1 5.01136 2.7926 -5.02322 
1883 1 4.87343 2.4645 -5.86594 
3060 2 6.31987 2.36307 -5.76405 
698 1 -7.06228 2.46972 -5.12538 
3414 2 6.071 3.06521 -5.45244 
1466 1 6.81773 3.13055 -4.65416 
2541 1 7.11988 2.97184 -5.73461 
1939 1 -6.94872 3.66706 -4.9649 
60 1 -6.35483 4.03949 -4.55791 
1060 1 -7.0908 4.65679 -4.95942 
822 1 -5.67633 3.60302 -5.05432 
2268 1 -5.45472 4.36622 -6.18342 
1833 1 -3.55297 4.27487 -5.5496 
1224 1 -4.07454 3.50197 -5.519 
668 1 -4.33122 4.64083 -5.60852 
1543 1 -4.89818 4.06137 -5.55993 
2490 1 -3.4837 3.00437 -5.0927 
2945 2 -2.40782 3.10348 -5.28467 
2977 2 -2.45211 3.85003 -5.17955 
197 1 -1.10986 4.19603 -5.12874 
1056 1 -1.27745 3.3164 -5.3808 
2647 1 -1.69037 3.3484 -4.43311 
3378 2 -0.190046 3.90189 -5.72257 
1201 1 0.271302 4.31345 -3.90865 
353 1 -0.567184 3.29809 -4.75735 
2522 1 0.904738 4.02703 -5.7849 
894 1 1.34771 4.22769 -5.21054 
1639 1 1.56466 3.35765 -5.30327 
1089 1 0.506508 3.90246 -4.87954 
23 1 1.89504 5.05476 -5.01627 
324 1 2.21082 4.04433 -5.17388 
268 1 3.61919 3.97496 -5.92195 
2894 2 3.47271 3.05251 -4.59183 
3013 2 3.5744 3.83368 -4.8164 
2092 1 4.77202 4.30653 -5.96181 
1398 1 4.51931 3.60845 -5.44802 
839 1 4.38794 4.44802 -5.00019 
115 1 6.89158 3.85746 -5.56385 
3298 2 5.69325 3.8658 -5.35725 
2546 1 6.59351 4.26542 -4.80762 
3045 2 -6.64913 4.98877 -5.90712 
3147 2 -6.73699 5.73356 -5.65387 
2573 1 -5.97144 5.36981 -4.97537 
297 1 -5.72377 4.55052 -5.18699 
2308 1 -4.84447 5.1697 -5.39384 
2376 1 -3.96212 5.37645 -5.20097 
803 1 -3.35681 5.07981 -5.82739 
1862 1 -3.75397 4.93631 -4.57702 
1140 1 -3.28304 5.4792 -6.56474 
2865 2 -2.69422 4.47732 -4.84082 
2326 1 -1.41951 5.39934 -5.93483 
1665 1 -1.4851 4.89908 -5.32279 
1577 1 -1.78231 5.74632 -5.03322 
3392 2 -0.327235 4.65757 -5.59296 
3207 2 -0.412984 5.44567 -5.38883 
1521 1 0.228953 4.66217 -4.72247 
586 1 0.922932 4.93228 -4.98509 
103 1 2.96674 4.67289 -5.59676 
2028 1 3.86687 5.63331 -5.53247 
372 1 2.71656 5.4928 -5.27325 
2414 1 4.52881 5.40882 -4.21674 
2231 1 3.93536 4.74817 -5.8469 
2814 2 3.42034 4.62369 -4.6168 
908 1 4.48754 5.34145 -5.02415 
2917 2 5.57899 4.69006 -5.27617 
2927 2 5.52774 5.49465 -5.08373 
1667 1 6.65272 5.03052 -5.33017 
2539 1 6.96731 5.7668 -4.67401 
2703 1 6.29512 5.00793 -4.35074 
2574 1 -6.01444 6.42083 -4.82593 
3330 2 -6.96093 6.47705 -5.50149 
1616 1 -5.77617 7.03594 -5.65903 
683 1 -5.49092 6.06107 -5.35603 
1490 1 -4.95296 6.75902 -4.95577 
1235 1 -4.40612 6.02837 -4.98844 
1396 1 -3.42655 6.03819 -5.60023 
964 1 -3.91845 6.63463 -5.17197 
1619 1 -2.8026 6.85414 -5.58921 
356 1 -2.05685 6.63373 -4.86791 
786 1 -2.51622 6.0107 -5.55735 
3455 2 -1.04011 7.0509 -5.01356 
3018 2 -0.828762 6.24794 -5.16452 
26 1 0.303462 -7.12237 -4.62952 
1107 1 0.681506 6.39032 -4.79968 
924 1 1.42744 5.87004 -4.81684 
1435 1 0.153073 5.64279 -4.47903 
2978 2 1.08986 6.89332 -5.66583 
504 1 2.26974 6.23926 -4.99966 
492 1 2.47813 6.80691 -5.46083 
1051 1 4.52731 6.99058 -5.68525 
1513 1 4.05946 6.46955 -5.33093 
2172 1 4.03301 7.17596 -4.23608 
451 1 4.25519 6.18923 -4.56123 
302 1 3.24103 6.6548 -5.44605 
274 1 5.22357 6.69278 -6.28398 
3257 2 5.35011 6.31969 -5.03769 
2971 2 5.20569 7.12103 -4.90747 
16 1 6.54454 5.79821 -5.62093 
2473 1 6.49497 6.4844 -4.94431 
1673 1 -6.93883 -6.56356 -3.96324 
2162 1 -6.54329 -6.33627 -2.98973 
3228 2 -5.49565 -6.86272 -3.81302 
3375 2 -5.63893 -6.06804 -3.53305 
2332 1 -4.44735 -6.41543 -3.81578 
2835 2 -3.29692 -6.78042 -4.38305 
959 1 -3.5594 -6.74572 -3.14543 
3265 2 -3.20141 6.75003 -4.51035 
1506 1 -2.41005 -6.64203 -3.67655 
2033 1 -2.01158 -6.91563 -4.47953 
1630 1 -2.42498 6.87125 -3.71965 
1629 1 -1.49586 -6.46847 -3.86276 
1143 1 -0.709707 -6.73421 -3.22902 
3236 2 0.378413 -6.19196 -3.34631 
1945 1 0.129974 -6.22444 -4.50362 
2096 1 1.18258 -7.0767 -4.24145 
3056 2 0.474315 -6.945 -3.23723 
1416 1 2.28707 -6.13435 -5.1839 
1382 1 0.929249 -6.19521 -4.42513 
1967 1 1.52472 -6.4559 -3.48081 
3303 2 2.80118 -6.78243 -3.84363 
2918 2 2.67679 -6.05837 -3.76605 
893 1 3.59182 -5.53852 -4.17458 
1358 1 4.40045 -5.59089 -3.2987 
440 1 3.75278 -6.50163 -4.43344 
2315 1 3.45205 -6.00236 -2.93864 
2926 2 4.96782 -6.68772 -4.6073 
144 1 5.64561 -5.62422 -3.67329 
2469 1 4.45419 -6.47417 -3.46829 
2571 1 6.07495 -6.71806 -4.17777 
2029 1 6.69808 -6.10622 -4.22588 
610 1 6.97618 -7.14293 -4.42109 
1872 1 -6.61369 -5.5182 -4.36833 
2309 1 -6.23907 -4.79149 -4.48885 
582 1 -4.71073 -5.08764 -3.4781 
2896 2 -5.77333 -5.28016 -3.5413 
2318 1 -5.56662 -5.60252 -4.56959 
2459 1 -5.30675 -4.71544 -4.44187 
3413 2 -3.54205 -5.99298 -4.40238 
3562 2 -3.58736 -5.13261 -4.21821 
104 1 -2.25283 -5.11468 -4.25593 
2439 1 -2.28231 -5.87275 -4.05584 
458 1 -1.99409 -4.31595 -3.51927 
1127 1 -0.986033 -4.32862 -3.77268 
401 1 -1.55989 -5.14639 -3.72775 
635 1 -0.592578 -6.02116 -4.07418 
1431 1 -0.506877 -4.98449 -4.34903 
27 1 0.560764 -5.29055 -4.28394 
1511 1 1.34968 -5.65386 -3.64605 
3379 2 2.36368 -5.36645 -3.87542 
665 1 3.32721 -4.66288 -4.21831 
847 1 3.01011 -4.64679 -5.00779 
3340 2 4.32449 -4.36025 -4.25044 
2695 1 4.67267 -4.35613 -3.14491 
1493 1 5.05966 -5.0374 -3.31884 
1994 1 6.94002 -5.33108 -3.78239 
1955 1 6.22584 -4.81395 -3.97287 
472 1 -7.00813 -4.73198 -4.00734 
2721 1 -6.58561 -3.91534 -4.47955 
874 1 -5.71975 -3.76939 -4.38786 
935 1 -5.53039 -3.04946 -4.06984 
3536 2 -3.79234 -4.46643 -4.15927 
3376 2 -4.07533 -3.81474 -3.89811 
2524 1 -2.73217 -4.24335 -4.15295 
647 1 -2.59085 -3.64314 -3.58169 
728 1 -1.55014 -3.86152 -3.32738 
2496 1 -3.15304 -4.28203 -3.25212 
180 1 -0.66206 -3.7273 -4.32722 
3285 2 -1.68475 -4.17097 -4.63077 
322 1 -1.04837 -3.24689 -3.70625 
2102 1 0.234199 -4.31693 -4.2429 
1799 1 1.08664 -4.75582 -4.39252 
954 1 0.0333175 -3.17054 -3.89483 
1843 1 1.28554 -2.71499 -4.05157 
393 1 1.52432 -4.05851 -4.5715 
1069 1 1.01274 -3.56228 -4.16833 
3230 2 2.21824 -4.6627 -3.81414 
3015 2 2.08234 -3.87382 -3.50587 
999 1 3.00245 -3.09352 -4.10371 
1653 1 3.29916 -4.04026 -3.68893 
3244 2 4.38905 -3.43152 -4.03158 
2857 2 4.13028 -2.63581 -3.91479 
742 1 3.1342 -3.22221 -3.2418 
2239 1 5.08762 -3.64222 -3.23568 
335 1 5.46768 -4.36352 -3.78318 
1703 1 5.50529 -2.93498 -3.64617 
1658 1 6.8681 -4.23347 -3.40768 
431 1 6.13046 -3.78497 -3.69757 
1144 1 -6.41782 -3.04745 -4.33474 
1449 1 -6.3502 -1.98984 -3.98386 
1707 1 -5.49672 -2.20321 -4.06316 
517 1 7.16697 -3.40036 -3.9357 
2388 1 -4.89779 -2.93029 -4.46037 
572 1 -5.49866 -2.5297 -3.28276 
3229 2 -4.43174 -2.32659 -3.4774 
1864 1 -3.74283 -2.94106 -4.75945 
871 1 -3.36437 -2.032 -3.9487 
3083 2 -4.19164 -3.00165 -3.76407 
2310 1 -2.99009 -3.59282 -4.62085 
2638 1 -3.11788 -2.88828 -4.08457 
1028 1 -0.697317 -3.86208 -5.23587 
3198 2 -2.02928 -2.71841 -4.24098 
2916 2 -1.77714 -3.37048 -4.54124 
1266 1 -1.37504 -2.20557 -3.44846 
2044 1 -0.819089 -2.89168 -4.52336 
2298 1 0.611919 -2.29658 -3.67949 
984 1 -0.576291 -2.40396 -3.75045 
2542 1 -0.0467714 -1.81543 -3.46415 
202 1 2.11663 -2.45593 -4.35572 
858 1 1.14169 -1.6683 -3.88523 
1237 1 2.02259 -3.40598 -4.60407 
303 1 2.8679 -2.11269 -3.88762 
3320 2 1.94572 -3.04759 -3.33198 
3353 2 3.98791 -1.81314 -3.75753 
2211 1 5.13045 -2.25752 -4.05061 
2365 1 4.88248 -2.59842 -3.10227 
3173 2 6.29727 -3.14116 -4.71515 
2858 2 6.21738 -2.40609 -4.55282 
1496 1 6.44262 -3.06802 -3.33019 
423 1 5.73103 -1.93763 -3.35579 
1299 1 7.08046 -2.559 -3.91923 
960 1 -7.10548 -1.86694 -4.91721 
808 1 -6.14826 -1.16391 -3.90527 
1446 1 -5.11198 -1.66612 -4.46425 
1551 1 -7.03587 -1.32025 -4.16756 
2674 1 -4.20278 -1.0434 -4.41572 
2465 1 -3.43635 -1.25633 -3.6656 
111 1 -3.82247 -0.23245 -4.06926 
3447 2 -4.436 -1.54902 -3.53155 
2748 2 -2.19072 -1.18305 -4.00046 
2766 2 -2.15862 -1.93408 -4.30294 
2395 1 -1.09353 -2.0521 -4.34821 
1971 1 -1.04374 -0.944293 -4.08362 
3585 2 -0.048497 -1.57186 -4.59916 
3500 2 0.0479321 -0.714374 -4.58654 
2057 1 -0.757906 -1.52206 -3.47841 
2434 1 1.44972 -2.08199 -4.66546 
1700 1 1.1624 -1.19333 -4.54638 
922 1 2.00649 -1.59589 -4.13867 
1969 1 0.720656 -0.887959 -3.7305 
2306 1 3.07681 -1.50383 -4.53302 
2013 1 2.61392 -0.955893 -4.14118 
76 1 3.13129 -0.231802 -4.5717 
3134 2 3.85013 -1.00894 -3.64555 
2914 2 3.55674 -0.24886 -3.5325 
844 1 4.73374 -1.74254 -2.97402 
1648 1 4.73992 -0.947074 -4.43549 
2299 1 5.12003 -1.47337 -3.7924 
2054 1 7.07264 -2.55581 -5.56432 
3116 2 6.11828 -1.62215 -4.44728 
1301 1 -6.98008 -0.623059 -4.24353 
1720 1 6.85809 -1.59037 -3.4696 
52 1 -6.08672 -0.146782 -3.57691 
1627 1 -6.32479 0.639384 -3.37642 
3263 2 -6.34222 0.580742 -4.69391 
35 1 -7.09906 0.303234 -3.78625 
1514 1 -5.26215 -0.960228 -4.15285 
1343 1 -5.62617 -0.563128 -2.96942 
1835 1 -4.62793 -0.159079 -4.30597 
1316 1 -3.3641 -0.415225 -3.2505 
2423 1 -4.34501 0.618009 -3.91745 
2789 2 -2.32491 -0.416337 -3.76094 
3490 2 -2.58402 0.303861 -3.55073 
1531 1 -1.44367 -0.389257 -4.53977 
2241 1 -1.02605 -0.39817 -3.35194 
3555 2 -0.194587 -0.0881502 -4.20142 
1706 1 0.739164 0.136647 -3.47105 
1296 1 0.57839 0.85692 -4.58965 
2237 1 1.60804 -0.60807 -4.02755 
446 1 1.00282 0.078502 -4.40649 
1337 1 2.63685 0.272626 -4.09151 
483 1 3.96578 0.0369461 -4.47406 
455 1 4.65689 0.614872 -4.03112 
2902 2 5.9658 -0.0291811 -4.04869 
1548 1 4.8047 -0.507221 -3.78358 
2856 2 5.94304 -0.759938 -4.27012 
523 1 6.89806 -0.572007 -3.58219 
654 1 6.81984 0.766529 -4.53861 
3260 2 -6.48267 1.18121 -4.27055 
3033 2 -6.55774 1.94249 -4.10206 
385 1 -5.4677 -0.121353 -3.93195 
1793 1 -5.61972 0.96017 -3.68136 
2311 1 -5.80185 1.66409 -3.21832 
500 1 -4.5376 1.43544 -3.72918 
493 1 -5.13907 0.812261 -4.4562 
2278 1 -3.81374 1.22518 -3.49279 
882 1 -3.61382 0.400496 -3.30311 
2601 1 -2.5772 0.795635 -4.64308 
2177 1 -3.32747 0.559596 -4.39288 
3588 2 -2.45817 1.02646 -3.43725 
857 1 -1.94498 0.265743 -4.62338 
1910 1 -1.38014 0.344485 -3.86156 
14 1 -0.999004 0.391878 -2.94826 
154 1 -1.70196 1.02537 -4.28444 
2950 2 -0.39404 0.621909 -4.08065 
3196 2 -0.47135 1.5418 -4.06203 
692 1 1.70541 0.537356 -3.80395 
3241 2 1.661 1.96586 -4.3949 
2 1 0.60446 1.72308 -3.26076 
2328 1 0.830995 1.22003 -3.93686 
254 1 1.63169 1.40778 -3.52039 
583 1 2.80485 1.04316 -3.93414 
1614 1 2.47316 1.80372 -3.62688 
296 1 4.20933 1.29439 -4.10938 
840 1 4.83123 1.16071 -3.19073 
1364 1 3.32321 1.78184 -4.07232 
234 1 4.54682 1.95714 -3.79808 
2819 2 5.79104 0.774854 -3.84521 
3209 2 5.67146 1.65976 -3.51899 
34 1 6.11857 0.733532 -5.03405 
2440 1 6.61458 2.24545 -4.53682 
817 1 6.72001 1.39462 -3.82815 
2751 2 -6.791 2.71961 -3.867 
3021 2 -6.86442 3.50503 -3.61667 
2061 1 -5.39646 1.90173 -4.16516 
412 1 -5.80708 2.7783 -3.27015 
2383 1 -4.90663 2.21717 -3.53741 
2529 1 -3.40957 1.46765 -4.2367 
697 1 -3.35782 3.36403 -4.1961 
1483 1 -3.17157 2.40632 -4.47029 
2436 1 -2.34949 2.57937 -4.14429 
1002 1 -2.53684 1.72006 -4.41388 
3006 2 -0.644477 3.14729 -3.5928 
892 1 -1.63547 1.99765 -3.85353 
2860 2 -0.59889 2.30609 -3.87686 
301 1 0.308319 3.44274 -3.9477 
30 1 0.403261 2.66704 -3.7986 
3063 2 1.43511 2.70292 -4.05973 
1176 1 2.78426 2.56028 -3.84123 
441 1 2.01303 2.33391 -3.05844 
2084 1 3.71484 2.43973 -3.66584 
3369 2 5.53737 2.55493 -3.39965 
2637 1 4.68451 2.83239 -4.24491 
556 1 4.31507 3.6312 -3.93124 