ITEM: TIMESTEP
21200
ITEM: NUMBER OF ATOMS
3594
ITEM: BOX BOUNDS pp pp pp
-7.2000774878929530e+00 7.2000774878929530e+00
-7.2000774878929530e+00 7.2000774878929530e+00
-7.2000774878929530e+00 7.2000774878929530e+00
ITEM: ATOMS id type x y z 
2191 1 -5.91844 -6.72221 -6.66612 
2521 1 -6.98148 -6.81432 -6.68785 
601 1 -4.92383 -6.39727 -7.14716 
3520 2 -5.05658 -6.19239 -6.07832 
3477 2 -4.99725 -6.92616 -6.10005 
520 1 -4.04233 -6.18189 -6.03351 
1262 1 -3.96914 -6.81992 -6.8827 
2944 2 -2.82933 -6.61297 -6.63165 
1582 1 -1.7171 -6.70607 -6.28698 
2426 1 -1.89071 -6.15593 -7.03444 
1167 1 -1.52567 -7.09594 7.15938 
1643 1 -0.721747 -6.44151 -6.08728 
2322 1 0.22121 -6.54254 -6.38674 
2431 1 0.53253 -6.39467 -7.11931 
1634 1 1.3622 -6.47649 -6.77835 
2368 1 2.01471 -7.13958 -6.76048 
1175 1 2.18468 -6.53903 -5.97321 
2957 2 3.17379 -6.1695 -6.25193 
2623 1 1.90515 -5.98739 -6.68528 
3442 2 3.61692 -6.71335 -6.54111 
1234 1 4.38451 -7.08485 7.00572 
628 1 4.52348 -6.34691 -6.69646 
3208 2 5.38354 -6.02427 -7.1186 
2787 2 5.59577 -6.84208 -7.07704 
2206 1 6.47237 -6.63518 -6.51776 
2009 1 6.56491 -6.02468 -7.15503 
355 1 -6.32947 -6.21381 -6.00436 
318 1 -6.59892 -5.09125 -5.83183 
1263 1 -6.16169 -5.5258 -6.63687 
1406 1 -5.23785 -5.56505 -7.18094 
3416 2 -5.21456 -5.44937 -5.95561 
2727 1 -4.19602 -5.08229 -6.10483 
1280 1 -4.3996 -5.17277 -6.9824 
262 1 -4.05916 -5.96648 -6.83479 
890 1 -3.83476 -4.68005 7.04324 
3574 2 -2.93386 -5.78075 -6.50422 
2981 2 -3.19481 -5.01488 -6.52682 
484 1 -1.98636 -5.43465 -6.63318 
3484 2 -0.92167 -4.91914 -7.07956 
2238 1 -0.491638 -5.28095 -6.05642 
128 1 -1.97364 -4.65881 -6.29537 
1836 1 -1.39439 -5.7413 -6.14584 
3019 2 -0.6991 -5.81315 -7.05568 
1133 1 0.175819 -5.74755 -6.29632 
579 1 0.342506 -5.26942 -7.15327 
1210 1 0.170496 -4.87982 -6.45686 
1088 1 1.22282 -4.87557 -6.39963 
2379 1 1.85013 -5.57359 -5.9406 
245 1 1.08836 -5.62588 -6.72506 
2933 2 3.10201 -5.4093 -6.0987 
2537 1 1.96534 -4.94804 -6.62981 
2150 1 4.24432 -5.44124 -6.46292 
388 1 4.21106 -4.71432 -5.92296 
2812 2 5.62639 -5.38598 -6.76778 
317 1 -7.04806 -5.72935 -6.44225 
639 1 6.97468 -4.92708 -6.21293 
1373 1 6.47901 -5.63408 -6.17325 
2656 1 6.49243 -5.08991 7.16925 
1184 1 -6.01104 -4.66845 -6.49778 
2975 2 -7.0877 -3.59994 -6.82634 
1282 1 -6.06576 -3.3709 -6.45166 
472 1 -6.53486 -4.16277 -5.96224 
2122 1 -4.88562 -4.60025 -6.68391 
1078 1 -5.11657 -3.69968 -6.40162 
2706 1 -4.1916 -3.80942 -6.83715 
3041 2 -3.40091 -3.55387 -5.97003 
1784 1 -4.4654 -3.02187 -6.06973 
1361 1 -4.35944 -4.213 -6.07851 
3061 2 -3.32956 -4.2513 -6.16253 
2289 1 -2.29796 -3.82679 -6.64978 
2124 1 -2.27987 -4.56279 -7.12727 
2808 2 -1.06574 -4.20719 -6.8623 
3332 2 -1.33312 -3.38071 -6.70437 
722 1 0.608787 -3.94914 -6.38638 
2589 1 -0.182407 -3.41145 -6.8877 
842 1 0.121584 -3.16983 -6.08333 
1945 1 -0.261153 -4.09886 -6.01081 
2520 1 0.0394708 -4.18169 7.19935 
1050 1 1.55148 -3.89785 -6.0657 
1168 1 2.20963 -4.13828 -6.70219 
1734 1 3.19393 -3.8073 -6.73957 
3249 2 3.05533 -4.73518 -5.84481 
1976 1 3.85881 -4.3403 -6.68815 
2407 1 4.05432 -3.84462 -5.85401 
985 1 4.2459 -3.63653 -7.06524 
3212 2 5.3369 -4.74214 -6.52639 
3266 2 5.09917 -4.11851 -6.50639 
1325 1 7.11056 -3.80202 -5.83346 
1372 1 6.18981 -3.2951 -6.50423 
2015 1 6.55754 -4.22639 -6.37449 
3126 2 7.05305 -2.79394 -6.83611 
1345 1 -6.07968 -3.01706 -7.15088 
923 1 -5.53697 -2.75306 -6.21829 
1800 1 -5.46018 -1.60617 -6.04032 
1087 1 -4.36702 -2.35852 -6.55467 
1001 1 -4.86946 -2.25233 -5.91274 
2549 1 -3.28456 -2.11734 -6.86214 
667 1 -2.71221 -3.25233 7.18673 
594 1 -2.32804 -2.58207 -7.16309 
2480 1 -2.40714 -2.99618 -6.26102 
3234 2 -1.23069 -2.58444 -6.68897 
3105 2 -1.41279 -1.83377 -6.3634 
2105 1 -0.144653 -2.51806 -6.83228 
1905 1 1.05498 -3.13746 -6.21354 
3347 2 0.906393 -2.52591 -7.18251 
2599 1 1.76259 -2.3363 -6.33269 
1663 1 2.00449 -3.17616 -6.4778 
1374 1 2.85551 -2.71473 -6.74545 
1635 1 2.03471 -2.48525 7.17494 
1111 1 2.88396 -1.8608 -6.45077 
2062 1 3.65812 -3.20582 -6.38485 
859 1 3.81771 -2.17685 -6.36482 
70 1 4.29771 -2.81307 -6.99986 
2767 2 4.98232 -3.3506 -6.19306 
3550 2 4.94681 -2.56929 -5.97252 
2352 1 5.85109 -2.43655 -6.66096 
3087 2 7.036 -2.04573 -6.50411 
2721 1 6.80908 -2.84551 -5.56863 
670 1 -6.49134 -1.41172 -6.87862 
1392 1 -6.26424 -2.24214 -6.79627 
2641 1 -6.94762 -1.50676 -5.52176 
3360 2 -5.25461 -0.984114 -6.98561 
1151 1 -6.21403 -1.23448 -5.99673 
395 1 -4.02894 -1.62929 -7.04749 
83 1 -4.47986 -1.53824 -6.24528 
174 1 -3.36078 -1.35399 -6.50369 
1370 1 -2.58343 -1.80536 -6.64215 
2718 1 -2.48678 -2.12556 -5.9404 
1457 1 -2.27192 -1.15644 -6.92086 
3200 2 -1.39264 -0.977718 -6.23048 
433 1 -1.08178 -1.03667 7.02564 
2108 1 -0.40452 -1.56502 -6.65569 
603 1 -0.23052 -0.894667 -5.98493 
2804 2 1.00418 -1.8286 -6.97895 
236 1 1.80494 -1.46062 6.63357 
171 1 2.21888 -1.71049 -6.93894 
1698 1 3.55762 -1.17967 -6.49233 
2477 1 4.19983 -0.801053 -6.96038 
76 1 4.01438 -1.70316 -7.1428 
2972 2 4.79683 -1.85237 -5.62843 
377 1 4.83577 -1.4417 -6.68802 
2500 1 5.86116 -1.56572 -7.01356 
2220 1 5.63943 -1.47222 -6.18775 
2840 2 6.63284 -1.29725 -6.34253 
1788 1 6.17797 -0.665573 7.1253 
351 1 -6.69502 -0.724234 -6.4663 
1331 1 -6.81283 0.39175 -6.2481 
3097 2 -5.58413 -0.262207 -6.87099 
2037 1 -4.84753 -0.647591 -6.01765 
1483 1 -4.72962 0.236973 -6.2427 
2560 1 -3.77363 0.0892113 -6.37968 
2180 1 -4.13867 -0.842109 -6.75959 
1474 1 -2.08246 -0.246234 -6.942 
330 1 -2.80597 0.641168 -6.47917 
743 1 -2.81867 -0.49081 -6.51107 
2397 1 -2.27125 0.477222 7.09419 
2796 2 -1.45855 -0.272475 -5.95445 
1993 1 -1.64742 0.699386 -6.66815 
28 1 -0.737031 0.382635 -6.36706 
1356 1 -1.19622 -0.0448361 -7.16081 
3088 2 0.607544 -0.326481 -6.48461 
3151 2 0.705625 -1.11599 -6.68186 
731 1 -0.530729 0.650714 7.19544 
1601 1 -0.467981 -0.292424 -6.51348 
1713 1 1.52413 -0.00559704 -6.68237 
1997 1 1.50402 0.893447 -5.99324 
925 1 1.73091 -0.881956 -7.13124 
3459 2 2.68482 0.202966 -6.99531 
970 1 2.71449 -0.902916 -6.14241 
2535 1 3.64352 -0.100367 -6.57911 
1524 1 3.86575 0.0325506 6.86235 
2183 1 4.6787 -0.0793071 -6.66846 
140 1 5.32596 -0.642505 -6.49388 
1185 1 4.84277 0.662365 -6.51063 
2797 2 6.55821 -0.517408 -6.08876 
3135 2 6.41121 0.207842 -6.22522 
284 1 5.65378 0.352129 -6.90926 
449 1 -7.07463 0.0917478 -7.03533 
339 1 -7.03293 1.28034 -6.15923 
2690 1 7.15519 2.16683 -7.10253 
3007 2 -5.98954 1.31193 -6.46694 
3127 2 -5.83803 0.430384 -6.65951 
1238 1 -4.8507 1.15206 -6.77389 
2685 1 -5.20157 2.07302 -7.10827 
3148 2 -3.85605 1.40345 -7.13932 
2320 1 -4.35109 1.00918 -6.20686 
902 1 -2.28073 1.39397 -6.41908 
1894 1 -3.1099 1.57422 -6.03752 
1265 1 -1.29228 1.5107 -6.55276 
1978 1 -0.989317 1.00831 -5.87902 
3311 2 0.421011 0.464765 -6.33448 
2928 2 0.0157935 1.28796 -6.31658 
3078 2 -0.156328 2.05488 -5.90967 
225 1 0.955314 1.69938 -6.38532 
3393 2 2.56034 0.925988 -6.9199 
3417 2 2.28602 1.57865 -6.66211 
1889 1 3.2893 1.7776 -6.21798 
2276 1 3.4031 0.744229 -6.09089 
1322 1 4.00526 0.604498 -6.76414 
1865 1 3.54142 1.39308 -6.83265 
2380 1 4.23951 1.38511 -6.3053 
50 1 4.94041 1.79485 -6.12202 
2072 1 5.58996 1.38403 -6.7571 
565 1 6.14052 0.874611 7.00165 
3038 2 6.39316 1.00286 -6.00621 
2530 1 6.94714 0.974778 -6.97635 
2594 1 6.30197 1.77977 -7.0637 
3140 2 -6.00506 2.10128 -6.46173 
3465 2 -6.11477 2.92935 -6.33835 
1335 1 -4.67661 2.08189 -6.31118 
1318 1 -5.14722 3.04083 -6.68355 
3093 2 -3.85772 2.16055 -7.09463 
2783 2 -4.04805 2.85992 -6.98649 
989 1 -2.73488 2.28618 -6.52859 
2508 1 -2.18643 2.99329 -6.44084 
1523 1 -2.9187 3.52233 -6.52725 
1353 1 -1.86508 2.14843 -6.6132 
1623 1 -1.269 2.93769 -6.37165 
818 1 -0.829213 2.25305 -6.69398 
3444 2 0.0288546 2.79533 -5.96581 
1486 1 -0.45982 3.25499 -7.16568 
1368 1 0.979684 2.45878 -6.85626 
1932 1 0.125955 2.5757 -7.05165 
1098 1 1.69594 1.69612 -5.7191 
3466 2 2.03278 3.11128 -6.46912 
3478 2 2.06702 2.36248 -6.53858 
1113 1 3.38473 2.2358 -7.06195 
1883 1 4.16467 2.3306 -6.21694 
1066 1 3.30061 2.59065 -6.26014 
1515 1 5.43148 2.31112 -6.80585 
865 1 5.06791 3.06727 -6.37699 
404 1 6.22808 2.61313 -6.92609 
1727 1 7.05863 3.00197 -6.69725 
1584 1 6.48798 3.63038 -6.68906 
1229 1 -7.16943 2.22247 -6.25441 
3414 2 6.18915 2.47526 -5.94096 
2736 2 -6.32265 3.67786 -6.22387 
1760 1 -7.0732 4.5501 7.08573 
3238 2 -6.58097 4.27521 -5.76643 
2268 1 -5.50848 4.41378 -6.43533 
1833 1 -5.16628 3.69072 -6.14449 
762 1 -5.42999 3.81351 7.11738 
1224 1 -3.53592 3.62822 -5.82487 
3408 2 -4.17058 3.66303 -6.93097 
3411 2 -4.42308 4.30637 -6.61448 
343 1 -3.32471 4.21583 -6.95396 
715 1 -2.77476 4.42623 -6.14293 
287 1 -2.01786 4.44331 -5.85587 
1198 1 -1.67793 3.67065 -5.98061 
1652 1 -1.36473 4.54201 -6.66415 
1308 1 -0.503347 4.4922 -6.8273 
159 1 -1.05439 3.75277 -6.73159 
1877 1 0.0734589 3.76756 -6.74307 
2673 1 0.853704 3.37185 -7.02125 
3138 2 1.87951 3.9074 -6.39832 
1521 1 1.00644 3.43501 -6.1608 
96 1 2.89669 3.89878 -6.70359 
703 1 3.18221 3.12422 -6.87936 
3223 2 4.03936 3.8706 -6.95323 
1923 1 3.2016 3.81628 -5.95219 
268 1 3.82931 3.21878 -6.18125 
2092 1 4.91203 4.07194 -6.07456 
112 1 5.7238 3.99515 -6.48787 
1338 1 5.55517 3.26427 -6.99588 
131 1 -6.93843 3.77448 7.17456 
248 1 6.89129 4.40993 -6.62671 
115 1 7.00134 3.52956 -5.94737 
1413 1 -6.96284 5.29497 -6.94546 
3045 2 -6.63551 5.02853 -5.80242 
1879 1 -5.64118 5.33578 -6.8194 
2396 1 -5.54825 5.03781 -5.9615 
3463 2 -4.78908 5.87178 -6.32386 
3471 2 -4.61814 5.07452 -6.42547 
2376 1 -3.5944 5.66645 -6.04508 
1396 1 -3.47176 5.16538 -6.88787 
803 1 -3.55506 4.61684 -5.97612 
1499 1 -2.80055 5.22868 -6.00124 
2832 2 -2.43143 5.49031 -7.15741 
786 1 -1.88438 5.23538 -6.26117 
2522 1 0.257594 4.75063 -6.56234 
948 1 -0.432241 5.43935 -6.60154 
2831 2 1.73119 4.67657 -6.19682 
2899 2 1.50332 5.50451 -6.11669 
1016 1 0.944295 4.41908 -6.86639 
1505 1 0.762371 5.37057 -6.90073 
686 1 2.68432 5.68727 -6.33978 
372 1 2.92358 4.72535 -6.4004 
3215 2 3.94711 4.68437 -6.61375 
2790 2 3.80192 5.44148 -6.87965 
16 1 6.03763 4.86203 -6.26357 
1295 1 5.02489 4.85088 -6.45676 
805 1 4.73913 5.6974 -6.2058 
274 1 5.53771 5.54093 -6.23782 
2160 1 4.89795 6.12254 -6.96473 
577 1 6.65607 5.43301 -6.48513 
1667 1 6.63956 5.35975 -5.4533 
2437 1 -6.51704 6.72357 -6.70344 
573 1 -6.429 5.8328 -6.73646 
1616 1 -5.77393 6.32265 -6.18929 
558 1 -5.6611 6.93176 -7.0343 
3150 2 -4.7566 6.74497 -6.17462 
964 1 -3.7519 6.36881 -6.52721 
1252 1 -3.78081 -7.18718 -6.16825 
3454 2 -2.51598 6.25294 -6.91352 
1394 1 -2.6255 6.14 -5.70006 
3268 2 -2.62887 7.01567 -6.79161 
1702 1 -1.20342 6.33289 -6.96653 
2018 1 -1.21835 6.91223 -6.50819 
1665 1 -1.62469 6.03863 -6.25063 
2630 1 0.233453 5.9285 -6.50918 
2429 1 0.29462 6.90865 -6.59341 
1333 1 -0.596108 -7.18422 -6.13488 
597 1 -0.524521 6.36682 -6.46484 
2415 1 1.44098 6.47614 -7.0028 
1709 1 0.912081 -7.12817 -7.08326 
2978 2 1.48017 6.3479 -5.95569 
546 1 2.39097 6.33568 -6.89479 
1249 1 2.41429 6.94432 -6.13003 
3587 2 3.52915 6.97538 -6.48887 
3569 2 3.60978 6.24374 -6.83134 
1530 1 5.39185 6.54231 -6.09016 
1051 1 4.59207 6.99489 -6.62671 
3539 2 5.62786 6.69905 -7.19936 
209 1 5.00218 -7.08065 -6.02411 
244 1 6.25951 6.06999 -5.9779 
1954 1 6.34218 6.88001 -6.26148 
66 1 7.02031 6.37232 -6.83715 
878 1 6.64679 -7.11646 7.17717 
2045 1 -6.01506 -7.1947 -5.88703 
1246 1 -6.46917 -6.71425 -4.74283 
2747 2 -7.06523 -7.01066 -5.6046 
1718 1 -5.95703 -6.3741 -5.28978 
1885 1 -5.25019 -7.16732 -4.97485 
2318 1 -5.39168 -6.17027 -4.78661 
2459 1 -3.88345 -7.02501 -5.30771 
1733 1 -4.56807 -6.59125 -5.10098 
2439 1 -2.23009 -6.20225 -5.7661 
2453 1 -3.36249 -6.41727 -5.4945 
658 1 -2.6259 -7.01365 -5.62523 
356 1 -2.46171 -6.91533 -4.83773 
3594 2 -1.35505 -6.52393 -5.00329 
798 1 0.0418671 -6.51815 -5.31303 
2626 1 -0.375044 -5.70278 -5.46163 
1567 1 0.209114 7.08378 -4.71352 
2826 2 1.07277 -6.62637 -5.71405 
1967 1 0.615931 -6.65653 -4.67769 
1998 1 1.76906 -6.1611 -4.96425 
1382 1 2.53986 -7.00692 -5.3809 
2256 1 3.34592 7.16013 -5.32186 
1075 1 3.24489 -6.22377 -5.25294 
1416 1 4.18687 -6.13794 -5.59536 
2172 1 3.74167 -6.70194 -4.82987 
3290 2 4.98015 -6.35402 -4.83145 
1724 1 5.84348 -7.14093 -5.6372 
281 1 4.97848 -6.13285 -5.87058 
1526 1 5.8159 -6.43478 -6.06753 
3487 2 6.8782 -6.46771 -5.36327 
1320 1 5.93046 -6.52636 -5.00018 
1551 1 -6.14492 -5.57369 -5.39286 
1872 1 -6.45782 -5.85156 -4.48642 
3325 2 -5.35449 -4.8052 -5.55106 
1955 1 -5.55611 -5.35877 -4.6106 
2248 1 -3.99116 -5.65522 -5.37935 
1864 1 -4.63916 -5.59892 -4.75952 
1465 1 -3.20258 -5.34734 -5.22292 
2350 1 -2.60037 -5.92292 -5.08567 
909 1 -2.23803 -5.21011 -5.74968 
3322 2 -1.48627 -5.6928 -4.96598 
3480 2 -1.50451 -4.92248 -4.71182 
527 1 -0.343318 -4.76358 -5.08747 
3068 2 0.927028 -5.68027 -5.60073 
2768 2 0.765433 -4.96449 -5.38143 
799 1 1.8779 -5.34787 -4.77839 
2113 1 2.56094 -5.82056 -5.24957 
393 1 1.80175 -4.69052 -5.67506 
847 1 2.65957 -5.02104 -4.83737 
1215 1 3.98311 -5.3332 -5.3369 
1695 1 3.41849 -5.48919 -4.73071 
1863 1 3.69766 -4.47955 -4.9789 
589 1 4.84741 -5.29436 -5.62368 
2825 2 4.68322 -5.50777 -4.55195 
144 1 5.8619 -5.88409 -5.48086 
2828 2 7.1339 -5.74108 -5.19513 
3010 2 6.7865 -4.92477 -5.11492 
1034 1 5.85963 -5.09576 -5.49771 
190 1 5.70145 -5.37453 -4.68557 
587 1 -6.53499 -4.3662 -5.18555 
831 1 -6.69699 -3.30589 -4.81743 
2912 2 -5.52993 -4.03415 -5.57533 
2737 2 -5.34329 -3.34433 -5.19802 
1609 1 -4.69129 -3.75661 -4.47229 
977 1 -4.37729 -3.73836 -5.24671 
1790 1 -3.39337 -4.37763 -5.08607 
874 1 -4.212 -4.73017 -5.30841 
1979 1 -2.7223 -4.67021 -5.32297 
1722 1 -2.27671 -3.91861 -5.73116 
2543 1 -1.14608 -4.749 -5.83193 
250 1 -1.19346 -3.81333 -5.74238 
2491 1 -0.529755 -4.04425 -5.09911 
1028 1 -0.697418 -3.08565 -4.98097 
3430 2 0.35341 -3.38314 -4.94422 
3227 2 0.720237 -4.06195 -5.23462 
40 1 1.91441 -3.70078 -5.16085 
247 1 1.96957 -4.46692 -4.834 
3014 2 2.75648 -3.92336 -5.72716 
1843 1 1.62695 -3.03726 -4.444 
2617 1 3.86489 -3.6567 -4.97188 
153 1 4.77693 -3.46557 -5.13129 
1313 1 3.93171 -2.91276 -5.65417 
1859 1 4.82169 -4.52758 -5.45872 
734 1 5.48709 -4.44465 -4.87924 
452 1 5.88599 -4.21758 -5.68506 
3080 2 6.83232 -4.1986 -4.88589 
3173 2 6.54339 -3.42925 -4.68786 
1459 1 -6.44449 -2.25429 -5.99384 
2106 1 -6.49996 -3.25169 -5.70361 
523 1 -6.86702 -2.30951 -4.93357 
1445 1 -4.48885 -2.01246 -4.88534 
1671 1 -4.33746 -2.95507 -5.12573 
2890 2 -5.58965 -2.59673 -5.18197 
2974 2 -5.8206 -1.73017 -4.87131 
2869 2 -3.40008 -2.70869 -5.76794 
2388 1 -3.66043 -2.56402 -4.57454 
477 1 -3.6226 -3.44609 -4.73944 
1953 1 -2.84196 -3.53141 -4.87114 
1835 1 -2.6171 -2.73697 -5.19359 
2674 1 -2.93817 -1.52822 -4.76265 
2139 1 -1.87442 -3.21954 -5.55698 
139 1 -1.59563 -2.49684 -5.60467 
871 1 -1.36427 -1.32162 -5.05504 
1738 1 -0.626484 -3.10146 -5.75232 
3354 2 0.389304 -2.55223 -4.88097 
1074 1 -0.397413 -2.2603 -5.89156 
969 1 -0.867187 -2.29754 -4.98011 
502 1 0.569141 -2.49791 -6.01152 
2558 1 1.29591 -1.90833 -5.62934 
1611 1 1.43785 -2.80098 -5.3406 
2830 2 2.8429 -3.17748 -5.67928 
3356 2 2.49721 -2.43167 -5.5401 
480 1 3.19656 -3.06146 -4.54627 
110 1 4.51432 -2.74076 -5.00704 
483 1 3.58808 -2.19099 -5.48852 
169 1 3.55292 -2.33824 -4.6994 
1472 1 6.10179 -3.46715 -5.72333 
2360 1 5.51774 -2.71514 -5.05174 
148 1 5.81288 -1.87258 -5.25109 
1414 1 6.08238 -2.37584 -5.88616 
1354 1 6.71156 -1.88565 -5.38099 
1841 1 7.07565 -0.438425 -4.85731 
2993 2 -6.10096 -1.00278 -4.78573 
960 1 -7.15052 -1.38508 -4.72424 
1027 1 -4.91347 -1.35368 -5.4658 
56 1 -4.78619 -1.05899 -4.48125 
2844 2 -3.61795 -2.04179 -5.57054 
3543 2 -3.69073 -1.23793 -5.4962 
900 1 -2.67321 -1.17213 -5.85952 
580 1 -2.8059 -0.438842 -4.89017 
2465 1 -2.0949 -1.66813 -5.22792 
2077 1 -2.02281 -0.611619 -4.96042 
2057 1 -0.563816 -1.5356 -5.41059 
3585 2 0.250987 -1.85288 -4.70502 
851 1 0.359759 -0.614935 -5.37193 
1057 1 0.375396 -1.65452 -5.80544 
2178 1 1.95784 -1.44074 -6.04701 
2187 1 1.28036 -1.39619 -4.54546 
1777 1 1.16901 -1.0726 -5.368 
3557 2 2.52569 -1.76705 -5.0157 
3449 2 2.25618 -0.889656 -5.04519 
530 1 3.30532 -0.339543 -5.96 
2995 2 4.43757 -1.16465 -5.67732 
296 1 3.67446 -1.29025 -4.67488 
2730 1 3.24149 -1.32877 -5.60933 
1830 1 4.3235 -1.66551 -4.76126 
656 1 5.54333 -0.603794 -5.63935 
1648 1 5.42125 -1.15736 -4.89638 
1207 1 6.46166 -1.05957 -5.17371 
571 1 -6.0899 0.353161 -5.63981 
1340 1 -6.74761 -0.494948 -5.74017 
3267 2 -6.30561 -0.179029 -4.6907 
2578 1 -4.92573 -0.503171 -5.04045 
90 1 -5.67512 -0.508915 -5.70648 
493 1 -5.30293 0.276395 -4.65566 
2597 1 -5.25079 0.211786 -5.56831 
3256 2 -3.89411 -0.547533 -5.5125 
3144 2 -4.11272 0.174034 -5.13703 
2601 1 -2.73329 -0.186563 -5.73298 
1002 1 -2.40137 0.356017 -4.79193 
2939 2 -1.89569 0.3481 -5.77484 
1380 1 -0.927225 -0.607486 -4.97112 
1837 1 -0.325776 -0.0820352 -5.56708 
1880 1 -0.90523 0.313129 -5.05772 
1618 1 0.322975 0.191363 -5.05145 
84 1 1.87826 -0.617157 -6.25204 
867 1 1.17431 -0.0867867 -5.61136 
1286 1 2.09957 0.195367 -6.11114 
3383 2 2.14563 -0.152722 -4.90263 
3443 2 1.81106 0.669303 -4.63963 
47 1 2.78594 0.292695 -5.72259 
2848 2 4.33522 0.293924 -5.5558 
3317 2 4.43278 -0.436822 -5.67709 
2013 1 3.2635 -0.513727 -5.09743 
873 1 5.45846 0.21218 -5.84281 
1911 1 5.26625 -0.209568 -4.81278 
1895 1 5.46165 0.733931 -4.97015 
346 1 6.25353 -0.0686421 -5.06403 
34 1 6.31204 0.731577 -4.66556 
2297 1 -7.13686 0.418478 -5.31743 
499 1 -7.13216 1.98437 -5.18362 
2061 1 -6.43742 1.32663 -5.35035 
521 1 -5.4796 2.0349 -5.47549 
1607 1 -5.10768 1.14852 -5.85397 
385 1 -5.6646 1.0866 -5.31606 
2861 2 -4.26791 0.97241 -5.07188 
3062 2 -4.62702 1.73411 -4.88329 
561 1 -4.02247 1.73605 -5.85336 
2490 1 -3.3259 1.71942 -5.24562 
1745 1 -3.58175 0.806409 -6.00959 
2529 1 -3.0466 0.572415 -5.31288 
2846 2 -2.02615 1.09751 -5.44302 
3117 2 -2.1684 1.84693 -5.25393 
1661 1 -1.01342 1.22803 -4.92141 
75 1 -0.362933 2.08755 -4.95216 
400 1 -0.316968 0.823266 -5.38469 
1971 1 0.223095 1.26608 -4.81892 
2271 1 0.789109 1.78537 -5.36408 
1375 1 0.935434 0.88715 -5.27178 
3241 2 1.67724 1.45302 -4.499 
221 1 2.90452 1.27384 -4.8052 
673 1 2.61108 1.17129 -5.66214 
3364 2 3.97363 0.971524 -5.30477 
3388 2 3.9153 1.71532 -5.16931 
850 1 5.23037 1.18163 -5.66081 
1684 1 5.85982 1.53801 -4.73766 
2584 1 5.05661 1.86631 -5.07938 
1369 1 7.13061 1.17607 -5.12608 
3060 2 6.23979 1.8716 -5.63562 
2541 1 -7.03131 2.83772 -5.5475 
928 1 -6.38336 2.32835 -5.43628 
491 1 -6.34217 3.33819 -4.95632 
1965 1 -5.05431 2.66704 -5.75583 
141 1 -4.13874 2.71387 -5.76478 
1543 1 -3.31067 2.73505 -6.07463 
2845 2 -4.50932 2.5193 -4.78299 
2523 1 -3.48845 2.51528 -5.12297 
2945 2 -2.40497 2.57137 -5.4621 
2977 2 -2.46388 3.40556 -5.26731 
2208 1 -1.174 1.97049 -5.71733 
1775 1 -1.27383 2.0121 -4.88484 
883 1 -1.21737 2.93472 -5.42131 
2813 2 -0.330891 3.50758 -5.77331 
46 1 -0.461975 2.89324 -4.60587 
1763 1 0.409272 2.63081 -4.72099 
1639 1 1.06263 2.50514 -6.02639 
23 1 1.06221 3.05001 -5.42093 
614 1 2.72096 2.12739 -5.49237 
785 1 1.7459 2.61837 -5.43431 
588 1 2.85796 3.04478 -5.68681 
946 1 2.52066 1.95237 -4.77334 
1644 1 2.37429 2.7512 -4.95854 
3433 2 3.82243 2.57591 -5.09088 
2894 2 3.45486 3.1662 -4.87011 
2327 1 5.05927 2.45394 -5.66469 
2130 1 4.89017 2.64973 -4.82122 
2066 1 4.52216 3.11318 -5.78358 
3298 2 5.91415 3.13734 -5.62677 
2151 1 6.72348 2.77621 -4.90979 
1402 1 5.79313 2.57752 -4.7723 
822 1 -6.87485 4.03802 -4.81293 
443 1 -5.74263 2.93008 -5.29132 
668 1 -5.52283 3.84453 -5.38754 
2308 1 -4.97075 4.53965 -5.55258 
2885 2 -4.98873 3.97271 -4.50855 
59 1 -4.57263 3.43572 -5.6691 
1862 1 -3.60058 3.38839 -4.97804 
1232 1 -4.23437 4.16182 -5.35296 
2865 2 -2.76228 4.14839 -5.04373 
2326 1 -1.60254 4.3312 -4.99588 
197 1 -1.94506 4.81507 -4.30961 
353 1 -1.29004 3.61598 -4.80255 
1089 1 -0.275933 3.9225 -4.59058 
3378 2 -0.655221 4.2251 -5.71736 
324 1 0.60093 4.16354 -5.92997 
103 1 0.537561 3.46196 -4.92573 
894 1 0.326454 4.47556 -5.0019 
1141 1 1.35712 4.02138 -5.29533 
504 1 2.51046 4.25419 -5.5542 
441 1 2.02467 3.4776 -5.33252 
1247 1 4.1383 3.9288 -5.60346 
3013 2 3.2829 4.00678 -4.77407 
1398 1 4.61332 3.54603 -4.9658 
2917 2 5.72725 3.80812 -5.28715 
806 1 6.85475 3.57445 -5.07631 
1200 1 6.6984 4.53781 -5.01204 
13 1 6.69271 4.43816 -5.74683 
698 1 -6.9318 4.91039 -4.7098 
1490 1 -6.22366 5.98056 -4.78919 
2200 1 -5.89207 5.00916 -4.99645 
2573 1 -4.69765 5.4967 -5.13955 
1235 1 -4.07863 5.22021 -4.50585 
1725 1 -3.92661 5.1082 -5.36178 
2275 1 -3.84494 4.16492 -4.69164 
3458 2 -2.89382 4.85033 -5.03444 
2988 2 -2.88987 5.56749 -4.62787 
246 1 -1.79305 5.12746 -5.36512 
3207 2 -0.758289 5.81124 -5.67056 
3392 2 -0.753143 4.96155 -5.73369 
897 1 -1.92009 5.97736 -5.2154 
849 1 0.158152 6.20518 -5.75275 
2598 1 0.421828 5.28416 -5.84936 
586 1 1.26382 5.05132 -5.09197 
1838 1 2.17676 5.63142 -5.26498 
492 1 2.17747 4.66924 -4.90499 
486 1 2.78341 5.20973 -5.70692 
1513 1 4.42473 5.15042 -5.57824 
295 1 3.52583 4.53919 -5.6452 
2814 2 3.51032 4.74207 -4.32759 
862 1 3.67659 5.52651 -5.68098 
2927 2 5.60099 4.65878 -5.32276 
3257 2 5.59081 5.55572 -5.10927 
908 1 4.31189 4.54052 -5.02771 
1939 1 6.72484 5.29429 -4.51195 
376 1 6.27331 4.53324 -4.23238 
610 1 -6.40831 6.82027 -4.77778 
3147 2 -6.8615 5.82098 -5.68871 
3330 2 -6.98063 6.61805 -5.64379 
1481 1 -5.85554 6.55899 -5.26011 
2023 1 -5.76227 5.73639 -5.6375 
1893 1 -5.06928 6.2016 -5.0353 
1619 1 -3.97564 6.23804 -5.47636 
1691 1 -4.33567 6.72534 -4.91825 
2033 1 -3.12593 6.77039 -5.65381 
448 1 -1.91492 6.89957 -5.81987 
101 1 -2.17091 6.70426 -4.62404 
3265 2 -3.34229 6.19831 -4.69066 
2835 2 -3.34245 6.90367 -4.38629 
3455 2 -1.12172 7.18854 -5.26278 
1435 1 0.0468572 7.03118 -5.61672 
1196 1 0.0608182 6.14158 -4.72743 
3018 2 -0.914758 6.38095 -5.23638 
3128 2 1.12036 7.03466 -5.91159 
2096 1 0.829996 5.78304 -5.1271 
825 1 0.820573 6.66572 -4.88735 
2564 1 2.06408 6.77583 -5.18915 
2168 1 2.80296 6.2822 -5.60452 
224 1 3.69019 6.41918 -5.60746 
329 1 4.16419 -7.09746 -5.71676 
302 1 3.92593 6.13683 -4.89466 
1992 1 4.49592 6.44665 -5.77128 
2926 2 4.84154 7.1773 -4.91147 
2971 2 5.09745 6.38482 -4.87545 
2136 1 6.66995 6.05709 -4.96654 
2539 1 6.2039 6.61195 -5.3141 
2051 1 -6.81099 -6.38318 -3.70572 
929 1 6.98235 -6.71065 -4.29257 
3228 2 -5.60243 -6.4742 -3.83134 
2309 1 -4.51395 -7.10923 -4.38273 
1730 1 -4.46835 -6.43267 -3.88131 
3413 2 -3.42982 -6.73595 -4.34559 
3562 2 -3.70717 -6.02919 -4.36953 
104 1 -2.32708 -6.10345 -4.226 
2283 1 -3.18076 -6.57428 -3.29968 
1086 1 -2.46558 -6.9092 -3.68628 
1107 1 -0.875549 -6.55212 -3.55896 
2524 1 -1.68251 -6.69698 -3.95499 
1881 1 -0.504215 -6.52806 -4.38803 
3236 2 0.617584 7.17356 -3.487 
2969 2 0.32187 -6.49846 -3.56875 
635 1 1.45435 -7.12632 -4.6949 
1511 1 1.70584 -6.58348 -3.94724 
3303 2 2.72928 -6.46888 -4.22059 
2918 2 2.64324 -5.73427 -3.93846 
709 1 3.98031 -6.15185 -4.21354 
451 1 3.88004 -6.70472 -3.73223 
811 1 3.27467 -6.91624 -3.18822 
2025 1 4.68083 -6.48971 -3.71363 
779 1 5.59515 -6.66359 -3.96182 
2462 1 6.14886 -7.12856 -4.65432 
168 1 6.28082 -6.04841 -4.29338 
3179 2 6.5125 6.89617 -3.21841 
1312 1 -6.80965 -5.06797 -4.1211 
2896 2 -5.88856 -4.9411 -3.37523 
3375 2 -5.7954 -5.71239 -3.55743 
992 1 -4.78534 -5.4315 -3.86128 
138 1 -4.94634 -4.62321 -3.79326 
3536 2 -3.59927 -5.30307 -4.14489 
2310 1 -2.60684 -4.84329 -3.54371 
959 1 -2.66935 -5.85744 -3.58373 
1470 1 -2.4427 -5.21013 -4.34904 
647 1 -1.67407 -5.85048 -3.77489 
728 1 -1.69304 -4.97264 -3.58531 
708 1 -0.699342 -5.54916 -3.99821 
1747 1 -0.754788 -4.70961 -3.86112 
2038 1 -0.0955561 -5.51917 -4.55054 
1799 1 0.32062 -4.84839 -4.29936 
26 1 0.634924 -5.89636 -4.45772 
1425 1 1.35265 -5.84339 -4.18002 
1327 1 1.48978 -5.64279 -3.36343 
1069 1 1.1292 -4.95147 -4.30873 
3379 2 2.35882 -5.1303 -3.60636 
2469 1 3.47524 -4.93074 -4.07344 
440 1 4.56786 -5.57729 -3.31077 
891 1 2.9704 -4.24802 -4.63415 
677 1 5.46549 -5.68481 -3.76389 
3340 2 4.46351 -4.66501 -4.40611 
767 1 5.14339 -4.70576 -3.28794 
1000 1 7.0639 -5.702 -4.08225 
1493 1 6.33633 -5.16124 -3.9522 
1994 1 -5.98234 -4.74573 -4.6149 
1013 1 -6.61112 -4.27713 -4.19469 
3286 2 -6.03451 -4.13234 -3.1888 
517 1 -5.57379 -4.09585 -4.3637 
1144 1 -5.00351 -4.77351 -4.66353 
1285 1 -5.07901 -3.48172 -3.73316 
3376 2 -3.93504 -4.63285 -4.11078 
3083 2 -3.80917 -3.83228 -3.88255 
1928 1 -2.82054 -4.2215 -4.27457 
772 1 -3.2641 -5.02 -3.03642 
1251 1 -3.01002 -4.10745 -3.15293 
2083 1 -2.26191 -4.0158 -3.55329 
3285 2 -1.73754 -4.07709 -4.71621 
1431 1 -0.948583 -3.21353 -3.33588 
2916 2 -1.67021 -3.30842 -4.43056 
401 1 -1.35015 -4.02177 -3.61586 
15 1 -0.124129 -3.09947 -3.99682 
1629 1 -0.452948 -3.84053 -4.22189 
27 1 0.498301 -3.89776 -3.9534 
632 1 0.950793 -3.79492 -3.21228 
566 1 1.36415 -4.05497 -4.35881 
3015 2 2.01953 -3.53726 -3.53317 
3230 2 2.20258 -4.29359 -3.69094 
2306 1 2.41305 -3.38217 -4.61747 
665 1 3.15904 -3.76397 -4.01416 
2145 1 3.38554 -4.46075 -3.17259 
3244 2 4.25272 -3.79903 -4.03619 
1703 1 4.76194 -4.24675 -2.62836 
2211 1 5.81111 -4.42804 -4.12116 
2336 1 5.47145 -3.60117 -4.65739 
431 1 5.23666 -3.75436 -3.40225 
2571 1 6.98309 -4.62 -3.87438 
85 1 6.26055 -3.86139 -3.81341 
335 1 -6.10497 -3.43403 -4.32201 
1299 1 -6.34454 -2.41549 -4.11557 
1145 1 -7.10264 -2.37246 -3.68338 
935 1 -5.40898 -2.65655 -3.94736 
1071 1 -4.67293 -2.70833 -4.41557 
1301 1 -5.26618 -2.27048 -3.2354 
3229 2 -3.88488 -3.05884 -3.63022 
3447 2 -4.17956 -2.29752 -3.43973 
1446 1 -2.78907 -3.28423 -3.98344 
2400 1 -3.00583 -2.34115 -4.38177 
2766 2 -1.98638 -1.69047 -3.95676 
904 1 -2.65036 -2.61909 -3.48598 
3198 2 -1.82555 -2.37812 -4.40376 
954 1 -1.4181 -2.16831 -3.16036 
2044 1 -0.638973 -2.29988 -3.7752 
607 1 0.243865 -2.15006 -3.63699 
984 1 1.59106 -2.17652 -4.50244 
202 1 0.865658 -3.21518 -3.99434 
2298 1 0.981646 -2.17114 -3.82019 
1385 1 2.8806 -2.96761 -3.77294 
303 1 2.25814 -2.50962 -4.28879 
3320 2 2.08581 -2.86991 -3.21019 
2857 2 4.22476 -2.88024 -3.91349 
3353 2 4.05457 -2.17974 -3.71406 
2411 1 5.34187 -3.03719 -4.1251 
2507 1 5.00833 -2.65058 -3.25867 
72 1 5.95306 -2.92266 -3.56323 
2858 2 6.55834 -2.62394 -4.43386 
1182 1 -7.07988 -3.25251 -3.92756 
2054 1 -6.84764 -1.58625 -3.9278 
1627 1 -6.23774 -0.863485 -3.62499 
1999 1 -5.87755 -1.78815 -3.74227 
408 1 -5.42744 -0.810644 -3.91779 
1514 1 -5.06747 -1.78726 -4.13566 
1316 1 -3.81228 -1.79804 -4.29998 
2278 1 -4.11859 -0.667475 -4.34946 
827 1 -3.40987 -0.892848 -4.08539 
2302 1 -3.17979 -1.8222 -3.74746 
2748 2 -2.2354 -0.917576 -3.96547 
111 1 -3.33819 -0.956128 -3.13375 
2241 1 -0.910986 -1.55376 -4.3928 
1266 1 -1.41766 -1.16978 -3.17322 
3500 2 0.158404 -1.07336 -4.38633 
2020 1 0.153816 -1.30946 -3.38323 
2395 1 -0.642254 -1.52263 -3.64384 
1700 1 1.48607 -0.819962 -4.07136 
858 1 0.780064 -0.520549 -3.48101 
1237 1 3.04375 -1.90111 -4.0865 
922 1 2.0919 -1.37111 -3.99879 
130 1 3.01173 -0.925774 -4.23317 
506 1 2.90206 -1.36759 -3.54921 
3134 2 4.12028 -1.51126 -3.47016 
2914 2 3.89287 -0.741215 -3.4995 
1364 1 5.05558 -2.03422 -4.45399 
1548 1 5.12522 -1.37398 -3.7585 
823 1 4.75211 -0.927412 -4.49902 
194 1 -7.09915 -0.791116 -3.92566 
2433 1 6.8093 -1.074 -3.12205 
3116 2 6.36669 -1.8663 -4.35803 
2856 2 6.12171 -0.975587 -4.12665 
1658 1 5.60879 -2.03799 -3.42612 
3186 2 -6.36928 0.462992 -4.19404 
253 1 -6.73064 -0.145592 -3.44445 
1815 1 -4.92807 -0.137172 -4.1476 
2300 1 -5.35908 0.403219 -3.65442 
52 1 -5.68952 -0.435097 -2.95414 
2132 1 -4.13029 0.280977 -3.93203 
1793 1 -3.53086 -0.0655227 -3.27118 
978 1 -3.65924 0.874579 -3.27116 
2605 1 -3.32674 0.0967034 -4.45985 
2789 2 -2.55081 -0.241936 -3.68385 
3490 2 -2.38038 0.434187 -3.74514 
857 1 -1.40397 -0.150784 -4.54627 
1531 1 -1.07984 -0.731906 -3.89711 
1910 1 -1.35275 0.193669 -3.70879 
3555 2 -0.105157 -0.297906 -4.14337 
2950 2 -0.312298 0.466944 -4.12955 
1296 1 0.371279 0.284797 -3.10155 
1890 1 1.45128 0.00956561 -3.72504 
2237 1 1.08033 -0.295358 -4.67693 
2722 1 2.30359 0.550267 -3.43301 
692 1 2.19736 -0.519522 -3.55198 
1176 1 3.1378 0.408521 -4.84548 
886 1 2.82354 0.0165224 -3.87976 
2068 1 4.00973 -0.32716 -4.60421 
941 1 3.76489 0.49506 -4.18033 
234 1 4.95619 -0.4338 -3.69323 
319 1 4.70185 0.375222 -4.49978 
2819 2 5.73987 0.660277 -3.70782 
840 1 4.61678 0.470812 -3.61867 
720 1 6.94082 0.299155 -4.41543 
2902 2 6.04688 -0.154206 -3.89619 
3263 2 -6.54048 1.25884 -4.26191 
3260 2 -6.58832 2.04777 -4.24215 
2423 1 -5.71732 1.10983 -3.5402 
2383 1 -5.49375 1.13625 -4.51938 
500 1 -4.61669 1.08008 -3.95492 
2177 1 -3.85871 1.75609 -3.70463 
697 1 -3.51557 0.852441 -4.115 
2436 1 -3.43296 1.63079 -4.37505 
3588 2 -2.48439 1.04352 -3.31709 
1484 1 -2.82422 1.09492 -4.62745 
2285 1 -1.9485 1.85836 -4.22732 
640 1 -1.4924 0.695157 -4.512 
2663 1 -1.57731 1.22171 -3.92873 
446 1 0.746385 0.996978 -3.46314 
2860 2 -0.707736 2.04374 -3.74516 
3196 2 -0.455838 1.2156 -3.92566 
1432 1 0.735384 0.622598 -4.25055 
2406 1 0.554857 1.65093 -4.1919 
1337 1 1.58973 1.0463 -3.44884 
2708 1 0.837482 2.09765 -3.43767 
2637 1 3.38195 1.61515 -4.16084 
2575 1 2.33077 1.69058 -3.63342 
414 1 2.74382 0.986597 -4.15011 
2021 1 4.17981 1.33968 -3.96463 
2084 1 4.54686 1.41196 -3.25613 
1568 1 4.94341 1.19318 -4.52863 
3209 2 5.65165 1.40759 -3.61076 
654 1 6.65613 1.32841 -4.10918 
899 1 6.68655 1.97117 -4.60503 
2497 1 6.93631 1.54629 -3.27973 
3033 2 -6.86492 2.72713 -4.20099 
2448 1 -6.01473 2.619 -3.43117 
92 1 -5.58103 2.45534 -4.62236 
412 1 -5.47408 1.86647 -3.92567 
120 1 -4.31454 2.91494 -3.52266 
1899 1 -5.16609 2.91972 -3.50393 
2687 1 -4.71567 2.16054 -3.69507 
2466 1 -3.55754 2.428 -4.02455 
154 1 -2.72906 2.09873 -4.31415 
1986 1 -3.00585 2.87058 -4.387 
2489 1 -2.30298 3.12529 -3.9836 
892 1 -1.94788 2.33104 -3.40561 
3006 2 -0.882758 3.00043 -3.52263 
1056 1 -1.60974 2.81607 -4.41533 
620 1 0.256295 2.41627 -3.84155 
2328 1 1.30383 2.77676 -3.07692 
3063 2 1.40112 2.09543 -4.54161 
3479 2 1.45884 2.84003 -4.27552 
1677 1 2.17944 2.54548 -3.44414 
1423 1 2.86871 2.35105 -4.06057 