ITEM: TIMESTEP
23200
ITEM: NUMBER OF ATOMS
3594
ITEM: BOX BOUNDS pp pp pp
-7.1981322368035201e+00 7.1981322368035201e+00
-7.1981322368035201e+00 7.1981322368035201e+00
-7.1981322368035201e+00 7.1981322368035201e+00
ITEM: ATOMS id type x y z 
2206 1 -6.94863 -6.40893 -6.47178 
1263 1 -6.06436 -5.92103 -6.29255 
558 1 -5.89682 -6.70214 -6.38292 
3477 2 -4.85534 -6.97498 -6.03904 
1415 1 -5.10736 -6.38808 -7.04188 
833 1 -4.58327 -6.99262 -7.01915 
1730 1 -4.00379 -6.31706 -6.99466 
2944 2 -2.80341 -6.34775 -6.52672 
3268 2 -2.70192 7.17557 -6.52554 
1634 1 -0.671276 -6.65459 -5.94465 
2018 1 -1.47105 -6.49388 -6.21943 
1665 1 -1.5935 7.03676 -6.11496 
2368 1 0.160371 -6.61475 -6.17244 
245 1 0.664732 -6.61104 -6.85814 
1249 1 1.52987 -6.47268 -6.71423 
2957 2 3.20138 -5.81733 -6.05636 
1538 1 2.45642 -6.51736 -6.79941 
1172 1 2.24105 -6.69766 -5.96741 
3442 2 3.30168 -6.60496 -6.1782 
1100 1 4.4784 -6.64744 -6.71735 
329 1 4.52417 -6.14824 -5.98423 
2787 2 5.56924 -6.33937 -6.82014 
3539 2 5.66631 -7.14686 -7.0494 
1724 1 6.63187 -7.13212 -6.29588 
2656 1 6.72884 -6.34484 -7.03031 
317 1 -6.78718 -5.41725 -6.09693 
1184 1 -6.13228 -5.13448 -6.53205 
601 1 -4.83854 -5.79718 -6.68885 
1406 1 -4.37006 -4.95202 -6.4763 
3416 2 -5.19182 -5.49916 -5.57978 
1437 1 -5.36712 -5.25838 -6.82984 
520 1 -3.96234 -5.63903 -5.99801 
2612 1 -4.00037 -4.55843 7.18136 
754 1 -3.99899 -5.37905 -7.05219 
2058 1 -2.06698 -5.01993 -6.69248 
3574 2 -2.96779 -5.56775 -6.18469 
2981 2 -3.16782 -4.60703 -6.23066 
1582 1 -1.81571 -5.91866 -6.8978 
1643 1 -1.60089 -5.48889 -6.03003 
3484 2 -0.880673 -5.01315 -6.92606 
3019 2 -0.571596 -5.71418 -7.04903 
1689 1 0.155426 -5.85347 -6.29305 
1050 1 -0.0996552 -5.0174 -6.09407 
579 1 0.308273 -5.09174 -7.11225 
1175 1 0.858992 -5.63224 -6.72219 
1088 1 0.963743 -4.75868 -6.45008 
2933 2 3.07259 -5.11883 -5.93683 
2048 1 2.24641 -5.58426 -6.66998 
1168 1 1.51185 -5.43851 -6.30801 
1734 1 2.12275 -4.62669 -6.72565 
19 1 2.95384 -4.64778 -7.12243 
1234 1 4.23779 -5.74188 -6.69395 
628 1 4.29097 -4.97756 -7.15838 
701 1 3.52917 -5.25624 -7.01475 
3208 2 5.48484 -5.42726 -6.7584 
2812 2 5.15331 -4.71297 -6.44867 
1373 1 6.78134 -5.82156 -6.40328 
639 1 6.99797 -4.92804 -6.17496 
695 1 6.48591 -5.31317 -7.09662 
1918 1 -6.5926 -4.47137 -6.08633 
3029 2 -7.19749 -4.29081 -7.13178 
1078 1 -6.04575 -3.73179 -6.42578 
2975 2 7.13135 -3.46736 -6.94497 
2122 1 -5.97558 -4.3985 -7.01613 
1280 1 -5.17638 -4.39828 -6.62483 
1345 1 -5.28963 -3.45807 -6.5063 
3061 2 -3.26137 -3.83371 -6.33162 
2706 1 -4.40147 -3.89065 -6.69228 
909 1 -2.07448 -4.08242 -6.59135 
2718 1 -2.30647 -3.20485 -6.27842 
228 1 -3.32669 -3.97226 6.92286 
2808 2 -1.0755 -4.26807 -6.83419 
3332 2 -1.14854 -3.47955 -6.65701 
2520 1 0.0438815 -3.27935 -6.32804 
722 1 -0.295958 -3.25797 -7.12699 
1106 1 0.407089 -4.18417 -6.41856 
2709 1 -0.0551162 -4.18498 -7.17253 
1905 1 0.88464 -3.49374 -6.12952 
1663 1 1.65746 -3.83889 -6.34548 
2537 1 1.68 -4.52266 -5.78542 
1976 1 2.42373 -3.91566 -6.95449 
2150 1 3.96762 -4.68381 -6.31274 
1770 1 3.45687 -4.10356 -6.74293 
388 1 4.05109 -3.99786 -5.79086 
3212 2 5.04347 -3.85983 -6.31747 
2015 1 6.18733 -4.54273 -6.66038 
1527 1 5.97282 -3.37802 -6.87182 
1325 1 7.08376 -3.99618 -5.96912 
1459 1 -6.06514 -2.90074 -6.66095 
1450 1 -6.31295 -2.88998 6.76534 
1392 1 -5.14014 -2.58019 -6.24355 
667 1 -3.45248 -3.17223 -7.15454 
923 1 -4.64214 -1.80796 -6.69834 
1784 1 -4.30814 -2.90777 -6.70807 
2549 1 -3.11454 -2.05679 -6.75403 
2139 1 -2.53426 -2.73418 -7.05257 
1370 1 -2.32909 -1.69644 -7.08246 
3234 2 -1.13984 -2.64666 -6.45921 
3105 2 -1.39765 -1.8903 -6.35255 
1074 1 0.472592 -2.50378 -5.86614 
321 1 -0.150939 -2.43701 -6.79044 
3347 2 0.962324 -2.46306 -7.02179 
2599 1 2.01794 -2.98091 -6.4771 
502 1 1.37509 -2.81029 -5.94086 
1374 1 2.69938 -3.14705 -6.74712 
2013 1 2.81039 -2.16645 -6.53291 
985 1 3.65784 -2.43691 -6.96586 
1897 1 3.74314 -3.30033 -6.38887 
1313 1 3.50456 -2.48666 -6.06857 
3266 2 4.79913 -2.97041 -6.33982 
2767 2 4.61565 -2.26703 -6.1188 
3126 2 6.94097 -2.74256 -6.89909 
2721 1 6.02901 -2.69688 -6.26393 
670 1 -6.40511 -2.06921 -6.18775 
351 1 -6.06203 -1.12168 -6.08845 
547 1 -6.7092 -1.314 -6.80815 
1800 1 -5.61982 -1.81976 -6.25457 
1001 1 -5.28647 -0.847787 -5.84588 
3097 2 -5.6476 -1.38049 -7.18679 
1087 1 -4.68444 -1.12582 -6.34838 
395 1 -3.79308 -1.24658 -6.68262 
1457 1 -2.82354 -1.67773 -5.89537 
1474 1 -2.96763 -1.08999 -6.57141 
3200 2 -1.70359 -1.20699 -6.12253 
433 1 -1.27081 -1.31506 7.161 
2108 1 -0.594542 -0.78488 -6.59906 
2589 1 -0.359012 -1.72107 -6.35537 
3151 2 0.583989 -1.02506 -6.65845 
2057 1 0.464017 -1.60813 -5.83281 
2804 2 1.02755 -1.66948 -6.94418 
171 1 1.99407 -1.35987 -7.0166 
925 1 1.78218 -1.10379 -6.13359 
859 1 2.66862 -1.14165 -6.45969 
2178 1 1.95201 -2.15724 -6.41236 
2062 1 3.77162 -1.5737 -6.8182 
3550 2 4.393 -1.46057 -6.04927 
2730 1 3.52302 -0.730346 -6.73822 
1834 1 3.92747 -1.16165 6.71771 
1414 1 5.61394 -1.77624 -6.3297 
656 1 4.68178 -1.21422 7.17336 
346 1 5.26051 -1.07962 -6.69973 
3087 2 6.84725 -1.9844 -6.81221 
2840 2 6.65011 -1.33008 -6.51883 
2126 1 -6.66777 -0.469123 -6.4367 
3127 2 -5.53654 -0.690338 -7.11311 
83 1 -4.54087 -0.306578 -6.64512 
3007 2 -5.65357 0.15845 -6.96741 
174 1 -3.70033 -0.28199 -6.51557 
2180 1 -4.49562 0.314944 -7.13942 
2320 1 -3.73176 0.453324 -6.26506 
2560 1 -3.00092 0.17805 -5.68391 
1894 1 -2.7137 0.0321443 -6.7035 
743 1 -2.93745 -0.741405 -5.72608 
2796 2 -1.61624 -0.4845 -5.87367 
1993 1 -1.21043 -0.292751 -6.85178 
1812 1 -0.671855 -0.270605 -5.9073 
3088 2 0.651086 -0.25979 -6.58289 
3311 2 0.209931 0.2992 -6.45305 
624 1 1.67977 -0.66717 6.90688 
693 1 1.72808 -0.274962 -6.81511 
970 1 3.39529 -0.122578 -6.3472 
530 1 2.52345 -0.258289 -6.23061 
2960 2 2.80453 -0.135766 7.047 
2535 1 4.15399 -0.26865 -7.09635 
1698 1 3.81693 0.428354 7.04575 
2183 1 4.3513 0.48454 -6.6966 
377 1 4.89237 -0.315216 -6.80204 
1322 1 5.36973 -0.130648 -5.93286 
2797 2 6.45643 -0.481146 -6.51849 
3135 2 6.60631 0.222659 -6.2341 
2061 1 7.16014 1.22735 -7.02765 
3465 2 -5.90385 1.63901 -6.48369 
2597 1 -6.7395 0.602026 -6.75375 
3140 2 -5.65171 0.963877 -6.72623 
1238 1 -4.70335 2.06905 -6.40972 
1607 1 -4.62186 0.891791 -6.45904 
625 1 -4.71187 1.25855 7.12594 
3148 2 -3.72796 1.53862 -7.1795 
561 1 -4.06783 1.40639 -6.09898 
1353 1 -2.79723 0.876446 -6.51566 
2523 1 -2.91179 1.70773 -6.25617 
28 1 -0.971965 0.470354 -6.7479 
1265 1 -1.93402 0.350906 -6.99794 
1978 1 -1.0726 1.4385 -6.90532 
2508 1 -1.75853 1.2179 -6.73359 
2928 2 0.153606 1.08199 -6.29134 
3078 2 -0.113659 1.8133 -6.09749 
84 1 1.64569 0.474561 -6.43941 
867 1 1.55295 1.58213 -6.01524 
1817 1 1.07188 1.24953 -6.7187 
3459 2 2.81311 0.47532 -7.02838 
3393 2 2.45908 1.16568 -7.06473 
2276 1 4.39231 1.56421 -6.23233 
2380 1 3.37056 1.82845 -6.97451 
1176 1 3.72528 0.996813 -6.42811 
1524 1 3.62309 1.25719 6.97676 
1883 1 5.09098 1.94332 -6.35704 
1185 1 5.12221 0.869364 -6.23754 
284 1 5.56835 0.420183 -6.85666 
50 1 5.55896 1.41035 -6.83731 
339 1 -6.94499 1.65684 -6.28016 
3038 2 6.40643 0.952318 -6.06179 
2736 2 -5.92111 2.45065 -6.36882 
3238 2 -6.19494 3.13579 -6.15476 
2685 1 -4.98429 2.89018 -6.47831 
2010 1 -4.97105 2.308 -7.17354 
3093 2 -3.62942 2.33546 -7.10842 
2783 2 -3.74421 3.12597 -6.83577 
1986 1 -3.13519 2.15509 -5.55776 
1543 1 -2.91521 2.62196 -6.27161 
2505 1 -2.52933 2.09407 -6.85175 
883 1 -2.11774 3.01843 -6.46661 
343 1 -2.73823 2.92026 7.15373 
2208 1 -0.898731 2.37501 -6.86781 
1623 1 -1.62568 2.14176 -6.39846 
818 1 -0.974596 3.20809 -6.69406 
1877 1 0.667032 3.24994 -6.86377 
323 1 -0.108741 3.15325 -7.11205 
1368 1 0.968168 2.11591 -6.66655 
3478 2 1.9906 2.52534 -6.64625 
1889 1 2.98333 2.44858 -6.00022 
3417 2 2.3144 1.86521 -6.74494 
1113 1 3.12103 2.70245 -6.96001 
865 1 3.74554 2.29491 -6.37313 
1515 1 4.68271 2.56415 -6.09542 
2305 1 5.38608 2.72367 -6.64815 
2072 1 6.65871 1.90697 -6.88863 
2594 1 -6.98049 2.88844 -6.94791 
404 1 6.44686 2.8135 -6.81855 
1229 1 7.1554 2.6391 -6.14912 
1927 1 5.84826 2.21581 -7.0947 
1134 1 -6.33593 4.4508 -7.04711 
2268 1 -5.45781 4.68658 -7.01062 
1833 1 -5.33961 3.99995 -6.40088 
789 1 -5.38858 3.2584 -7.13829 
3408 2 -4.30777 3.66781 -6.80615 
3411 2 -4.23662 4.34563 -6.50772 
715 1 -3.18703 4.31498 -6.69284 
803 1 -3.03358 3.60341 -5.98655 
1523 1 -2.66747 3.55947 -6.7263 
287 1 -2.05703 3.8826 -6.15003 
1486 1 -1.32159 4.02412 -6.51963 
1308 1 -0.973891 4.48342 -7.17357 
3306 2 -2.13809 4.36753 7.14577 
2522 1 0.002398 3.97975 -6.80012 
324 1 0.547664 5.2011 -6.30573 
3138 2 1.72074 4.24434 -6.22172 
1639 1 0.676053 4.15364 -6.23359 
1016 1 0.854429 4.63599 -6.87597 
3466 2 1.8947 3.45853 -6.54639 
703 1 2.9606 3.42354 6.83134 
1923 1 2.88267 3.88767 -6.67103 
268 1 3.05284 3.25749 -6.2087 
1066 1 3.89649 3.26006 -6.00605 
3551 2 4.03667 3.2414 -7.06472 
3223 2 3.95454 4.02259 -7.12463 
2092 1 4.29748 3.93291 -5.96703 
112 1 5.84124 3.51416 -6.70485 
1338 1 4.94851 3.49079 -6.24053 
16 1 4.96899 4.15912 -6.82584 
131 1 6.66137 3.84043 -6.3736 
1584 1 5.8027 4.40156 -6.58894 
1727 1 -7.14086 3.75709 -6.91602 
2308 1 -6.18475 5.42655 -6.80442 
2142 1 -7.08573 5.5045 -6.91954 
1481 1 -5.27647 5.6813 -7.10162 
1965 1 -5.56042 4.98809 -6.26598 
3471 2 -4.4398 5.15263 -6.49697 
1396 1 -3.34175 5.471 -6.76045 
2376 1 -2.45543 4.61688 -5.9686 
2832 2 -2.12763 5.7687 -6.95406 
964 1 -2.75336 5.8756 -5.86291 
2839 2 -2.24498 5.03254 -6.8682 
345 1 -1.23239 4.86909 -6.37328 
1521 1 -0.102856 4.99952 -6.59847 
948 1 -0.782273 5.60705 -6.569 
215 1 -0.129853 6.11293 -6.5618 
2831 2 1.79006 5.0211 -5.95921 
1792 1 1.35556 5.2179 -7.043 
686 1 2.30436 5.22732 -7.05701 
372 1 2.88267 4.77246 -6.50384 
3215 2 3.99527 4.90913 -6.93093 
2790 2 3.81366 5.7066 -6.74003 
2088 1 4.79579 5.37071 6.99698 
805 1 4.65812 4.77086 -6.09308 
1295 1 4.91344 5.93356 -6.63544 
244 1 5.28091 5.1078 -6.66362 
274 1 5.56596 5.83607 -6.27548 
122 1 6.97028 4.6557 -6.63917 
248 1 6.30346 5.31428 -6.06317 
2437 1 -6.86934 7.1855 -6.68104 
1616 1 -5.95925 6.93632 -5.99483 
2045 1 -6.40361 6.46425 -6.78725 
3150 2 -4.84894 6.59118 -6.01997 
1004 1 -5.60615 6.83316 -6.81281 
2573 1 -5.82637 6.01154 -6.31049 
3463 2 -4.43734 5.95191 -6.23871 
2459 1 -3.83758 7.03006 -6.6646 
1733 1 -2.64942 6.68313 -5.57572 
2514 1 -3.44973 6.18075 -6.52409 
3454 2 -2.39625 6.48464 -6.71162 
597 1 -1.53621 5.69468 -6.1006 
2322 1 -1.10811 6.41104 -6.51659 
741 1 -1.03929 6.18712 6.88963 
1333 1 -0.408894 6.98575 -6.21657 
2630 1 0.302404 6.39312 -5.97546 
2415 1 0.626876 6.88807 -6.65545 
2899 2 1.58909 5.84312 -5.95581 
430 1 1.51173 7.01166 -6.83383 
2492 1 2.3911 6.15246 -6.86926 
290 1 0.768848 5.95597 -6.76445 
546 1 2.69861 5.7204 -6.32138 
2168 1 2.54038 6.6169 -6.17344 
1097 1 2.41178 7.08934 -6.91018 
3587 2 3.61441 7.13207 -6.43491 
3569 2 3.72298 6.38046 -6.3237 
795 1 4.94076 6.64319 -6.13725 
1051 1 5.00631 -6.92852 -6.02902 
2160 1 4.68742 6.96581 -7.16272 
1530 1 5.81491 6.68447 -5.99746 
2905 2 5.90146 6.46191 -7.19021 
573 1 7.0473 6.74746 -7.13256 
66 1 6.66051 6.17549 -6.3979 
2521 1 -6.13792 -6.21817 -5.47336 
355 1 -5.78439 -7.06725 -5.29389 
3520 2 -4.84844 -6.24076 -5.79356 
2318 1 -4.99648 -6.82402 -4.80353 
278 1 -4.26282 7.17134 -5.20418 
2453 1 -3.67937 -6.10051 -5.33245 
448 1 -1.88715 -6.1058 -5.63524 
2350 1 -2.74887 -6.08681 -5.23944 
2033 1 -3.12771 -6.87617 -5.49988 
101 1 -2.25055 -6.88295 -5.43847 
3594 2 -1.11905 -6.62398 -4.89385 
3455 2 -1.02455 6.99713 -5.11718 
2429 1 0.16769 -7.05163 -5.34392 
1567 1 -0.130385 -6.18871 -5.34894 
2826 2 0.940858 -6.09269 -5.46138 
3128 2 1.12465 -6.84824 -5.80333 
1998 1 1.86736 -6.69914 -4.94741 
799 1 1.48836 -5.74111 -4.48556 
2379 1 2.10678 -5.91671 -5.80155 
2113 1 2.9301 -6.43373 -5.12499 
847 1 2.19022 -6.05543 -4.90815 
2256 1 4.28705 -6.90251 -5.62284 
1075 1 3.68229 -6.41744 -4.77943 
209 1 5.77344 -6.81775 -5.64199 
3290 2 5.00672 -6.46294 -4.73052 
281 1 5.32645 -5.99016 -5.8467 
2009 1 6.28013 -6.41814 -6.08674 
168 1 6.02553 -5.92695 -5.16379 
2828 2 -7.14835 -6.31463 -5.33367 
1551 1 -6.17715 -5.57959 -4.82959 
318 1 -6.39009 -4.93366 -5.43616 
831 1 -6.15086 -4.41279 -4.67031 
1872 1 -5.46818 -6.05773 -4.69054 
335 1 -5.61018 -4.9903 -4.46387 
3325 2 -5.29686 -4.70809 -5.74819 
262 1 -4.00925 -5.19522 -5.14942 
2248 1 -4.35504 -6.2374 -4.83305 
1465 1 -3.18942 -5.24865 -4.9827 
1144 1 -4.7032 -4.66442 -4.79678 
658 1 -2.39101 -5.40625 -5.07463 
1133 1 -1.07589 -4.88807 -5.79547 
1836 1 -2.14633 -4.91328 -5.65694 
3322 2 -1.31941 -5.85409 -4.73385 
3480 2 -1.41777 -5.12189 -4.60965 
1435 1 -0.837322 -5.91211 -5.89382 
798 1 -0.323667 -5.29712 -5.18906 
2038 1 0.0475979 -5.63184 -4.39918 
3068 2 0.826472 -5.37895 -5.36225 
2623 1 1.8963 -5.28145 -5.34572 
1695 1 3.0821 -5.62885 -4.9062 
1863 1 2.5283 -5.0278 -4.82418 
1416 1 4.05629 -5.95897 -5.29356 
1215 1 3.95053 -4.90623 -5.2336 
589 1 4.4502 -5.35291 -5.78658 
1034 1 5.28473 -5.20668 -5.46835 
190 1 6.03536 -5.12866 -4.81046 
734 1 5.71186 -4.27077 -4.48222 
1526 1 6.03058 -4.44371 -5.48236 
144 1 6.14571 -5.24521 -5.9088 
3010 2 7.09148 -5.46419 -5.15504 
3080 2 6.96789 -4.78448 -4.93174 
472 1 -6.70641 -4.00484 -5.28314 
2912 2 -5.47586 -4.01421 -5.40273 
2737 2 -5.66539 -3.19993 -5.28166 
2727 1 -4.13281 -4.33553 -5.75571 
874 1 -4.34742 -3.39845 -5.06165 
1979 1 -3.75327 -4.24004 -5.02338 
3041 2 -3.40636 -3.10035 -6.00401 
2439 1 -2.49023 -3.53028 -5.29071 
1470 1 -2.85271 -4.28945 -5.02144 
484 1 -2.02862 -4.0408 -5.81427 
2238 1 -1.16557 -3.94326 -5.4617 
1722 1 -1.49037 -3.08894 -5.33527 
1210 1 -0.270932 -4.10934 -5.88873 
2626 1 -0.433886 -4.46092 -4.96745 
1945 1 -0.545435 -3.50911 -4.78866 
2768 2 0.694009 -4.54381 -5.35199 
393 1 2.01384 -4.20926 -5.09445 
3227 2 0.716117 -3.75927 -5.096 
1611 1 1.60554 -3.44924 -5.55764 
3249 2 2.68222 -4.55714 -5.90651 
40 1 2.70821 -3.84046 -4.59012 
3014 2 2.88618 -3.81382 -5.76094 
2306 1 1.89774 -3.29924 -4.53761 
665 1 3.35168 -3.26698 -4.67859 
480 1 3.69009 -4.01328 -5.08494 
1859 1 4.64996 -4.39677 -5.34959 
1472 1 5.36556 -4.09419 -5.16718 
153 1 4.66428 -3.33628 -5.31805 
452 1 6.13572 -3.85469 -6.05758 
3173 2 6.73961 -4.02511 -4.67638 
1282 1 -6.8477 -3.23541 -4.96538 
2106 1 -6.58537 -3.37067 -5.91661 
2641 1 -6.97853 -2.6674 -5.91004 
1361 1 -4.74852 -2.58156 -5.39222 
2890 2 -5.99581 -2.5295 -5.17514 
1671 1 -4.76378 -1.90972 -4.85651 
2974 2 -5.82261 -1.83452 -4.96763 
1285 1 -4.81264 -2.84342 -4.63454 
977 1 -4.48512 -3.4813 -5.94394 
477 1 -3.85707 -2.68396 -4.63407 
2869 2 -3.63009 -2.43688 -5.72134 
2543 1 -2.78946 -2.77993 -5.1462 
1790 1 -2.84937 -1.93691 -5.11915 
900 1 -2.4188 -2.35072 -6.19951 
527 1 -0.513541 -2.29389 -5.52164 
842 1 -0.859002 -2.56164 -4.75439 
1738 1 -1.99382 -2.50592 -5.50468 
2465 1 -1.30227 -1.95097 -5.22719 
250 1 -0.379279 -3.15929 -5.58958 
3430 2 0.389748 -3.03904 -4.89654 
3354 2 0.415896 -2.35861 -4.65362 
2558 1 1.35584 -2.57591 -5.20458 
2105 1 1.36975 -1.93523 -5.94308 
1843 1 1.78904 -2.46933 -4.28065 
2830 2 2.5722 -3.02371 -5.51567 
3356 2 2.42006 -2.24325 -5.42079 
169 1 3.34551 -2.24964 -4.74699 
2407 1 3.86454 -3.00808 -5.28285 
110 1 3.69639 -1.54734 -5.06057 
2617 1 4.42785 -2.21826 -5.09549 
2360 1 5.73244 -2.16654 -5.53469 
2211 1 5.66863 -3.08435 -5.49317 
2411 1 5.19134 -2.58777 -4.80643 
148 1 6.65737 -2.11571 -5.71097 
1354 1 6.75721 -3.15596 -5.66828 
2858 2 6.45142 -3.29955 -4.7043 
1331 1 -7.09796 -0.715913 -5.74331 
1151 1 -6.78987 -1.43162 -5.73199 
2993 2 -6.02845 -1.04471 -4.88612 
194 1 -7.04649 -2.18007 -4.99778 
1445 1 -4.98666 -1.82504 -5.57509 
2578 1 -5.23729 -0.242484 -5.16688 
1027 1 -4.81368 -1.01005 -4.79301 
2400 1 -4.00135 -1.82887 -4.51367 
2844 2 -3.96635 -1.76593 -5.70812 
3543 2 -3.89429 -1.01208 -5.46727 
1953 1 -2.23002 -1.41532 -5.26842 
580 1 -2.6883 -0.754822 -4.97179 
1380 1 -1.17991 -1.0498 -5.09408 
139 1 -0.560648 -1.24226 -5.70361 
3500 2 -0.0417842 -1.04754 -4.5704 
1057 1 1.12041 -1.33763 -5.43189 
1777 1 1.07296 -0.846272 -4.51646 
984 1 1.31903 -1.81517 -4.79481 
3557 2 2.36005 -1.40353 -5.24679 
3449 2 2.19301 -0.645609 -5.12815 
2972 2 4.42692 -0.666835 -5.88702 
296 1 3.26297 -0.733992 -5.6592 
483 1 3.33138 -1.68185 -5.80899 
1830 1 3.76926 -0.758575 -4.84972 
823 1 4.40983 -1.31206 -4.97711 
1648 1 5.49905 -1.13611 -5.82885 
1364 1 5.27939 -1.61128 -5.07032 
873 1 5.09674 -0.799712 -5.08081 
1207 1 6.23955 -1.16179 -5.34204 
1684 1 7.026 -1.23968 -4.98864 
571 1 -6.75902 0.303074 -5.76702 
3267 2 -6.34627 -0.405293 -4.94652 
2297 1 7.05227 0.599276 -4.92188 
2037 1 -4.9888 0.200137 -6.06317 
90 1 -6.0869 -0.173906 -6.02464 
493 1 -5.21035 0.565817 -4.76462 
3256 2 -4.15079 -0.363144 -5.47987 
3144 2 -4.01345 0.263018 -5.1995 
2077 1 -1.73547 -0.41671 -4.64944 
2601 1 -2.73561 0.0696565 -4.89235 
2605 1 -3.38314 -0.523546 -4.37237 
2939 2 -1.98526 0.17897 -5.85634 
857 1 -1.02078 0.609975 -4.94361 
1880 1 -0.881858 -0.249364 -4.95293 
603 1 0.241471 -0.836952 -5.65638 
851 1 1.00317 -0.205732 -5.10566 
1837 1 1.33965 -0.443473 -5.86852 
1432 1 1.31642 0.687879 -5.6918 
1997 1 2.30312 0.763293 -6.05935 
3383 2 2.26925 0.119855 -5.1724 
414 1 3.24477 0.291675 -5.27415 
2995 2 4.35814 0.0680665 -5.64809 
140 1 5.49388 0.522412 -5.31513 
850 1 4.96911 -0.0276101 -4.67664 
1340 1 5.85604 -0.313066 -5.25929 
2584 1 6.72537 -0.240986 -5.11806 
1568 1 6.28553 0.562794 -5.01695 
385 1 -5.90562 1.90283 -5.2784 
1369 1 -6.47937 1.12682 -5.49371 
2151 1 -6.74746 2.09882 -5.54353 
1483 1 -5.77854 0.524075 -5.47703 
521 1 -5.0962 1.20717 -5.67515 
2861 2 -4.24892 1.028 -5.06209 
2436 1 -3.40863 2.06136 -4.83119 
330 1 -3.28134 1.16023 -5.7076 
1745 1 -2.98611 0.806118 -4.8316 
3117 2 -2.23421 1.66439 -5.33404 
2846 2 -2.09522 0.953108 -5.77681 
2285 1 -0.879596 1.67724 -5.31578 
640 1 -1.17282 1.48899 -6.0856 
154 1 -0.91735 0.720554 -5.84564 
1484 1 0.00953285 -0.0378916 -5.33748 
1618 1 0.53791 0.761906 -5.19489 
400 1 -0.278528 1.16339 -5.04735 
1375 1 0.812295 1.60289 -5.37097 
3241 2 1.59719 1.51833 -4.57109 
3443 2 1.89952 0.701077 -4.81652 
2406 1 0.679089 1.12887 -4.41262 
47 1 3.13431 0.608796 -5.93729 
673 1 2.18595 1.45915 -5.47761 
221 1 3.12334 1.61445 -6.02246 
946 1 2.59332 2.19496 -5.40386 
3317 2 4.23982 1.0314 -5.40164 
2848 2 3.9946 1.75047 -5.1653 
2327 1 5.42314 1.31619 -5.63147 
499 1 7.06614 1.41608 -5.13835 
3060 2 6.30974 1.83274 -5.86896 
817 1 6.84051 2.38696 -5.04259 
899 1 6.05814 1.38605 -4.80378 
491 1 -5.62012 2.78559 -5.08133 
806 1 -6.66681 2.91706 -5.22641 
1318 1 -5.01297 2.18579 -5.60684 
928 1 -5.47153 2.35096 -4.44892 
443 1 -5.3525 3.73572 -5.58128 
1335 1 -3.98244 2.32809 -5.90661 
3062 2 -4.44366 1.81259 -4.79363 
1224 1 -3.53165 3.01642 -5.64752 
2845 2 -4.43171 2.60177 -4.79527 
2466 1 -3.39343 3.18271 -4.8106 
2945 2 -2.1977 2.52892 -5.42643 
2977 2 -2.30492 3.31406 -5.2298 
1661 1 -1.25116 2.74676 -5.83381 
1775 1 -1.14232 2.94354 -4.95206 
3444 2 -0.209165 2.63711 -5.92433 
75 1 -0.407661 2.45874 -4.75609 
2708 1 0.292718 1.85567 -4.8054 
1257 1 0.92491 2.3736 -5.74808 
2271 1 0.906474 3.32956 -6.03107 
1098 1 1.6437 3.18694 -5.29742 
620 1 0.769855 2.66954 -4.91744 
588 1 2.4316 3.25707 -5.6519 
614 1 1.84115 2.39932 -5.58997 
3364 2 3.70139 2.53251 -5.08862 
3388 2 3.61774 3.37249 -5.07647 
2066 1 4.79039 2.97967 -5.28001 
2130 1 5.07507 2.02513 -5.24886 
3414 2 6.15223 2.60307 -5.80861 
462 1 6.59435 1.97333 -4.29146 
297 1 -7.0618 3.63767 -4.8818 
3045 2 -6.44882 3.96718 -5.96781 
1060 1 -6.42458 4.65703 -4.45065 
2200 1 -6.03784 3.87594 -4.88661 
59 1 -4.54601 4.1578 -5.45213 
822 1 -5.31483 4.57677 -5.46678 
141 1 -4.6811 3.16857 -5.80236 
1862 1 -4.04093 3.54424 -5.58494 
1725 1 -3.92743 4.84536 -5.19656 
1619 1 -3.28187 4.26519 -5.63065 
2865 2 -2.50028 4.05886 -4.96935 
2326 1 -1.24096 4.09507 -4.91576 
1198 1 -1.30695 3.63662 -5.57713 
46 1 -0.708971 3.52121 -4.66176 
2813 2 -0.142578 3.27495 -5.68841 
3378 2 -0.389332 3.98682 -5.85953 
1763 1 0.533182 3.82232 -5.0916 
2632 1 0.607279 4.72948 -4.55193 
225 1 1.24918 4.28287 -5.19255 
103 1 0.614989 4.71219 -5.56727 
295 1 2.68273 4.18562 -5.58494 
504 1 2.11244 3.98235 -5.04662 
441 1 2.46507 4.24083 -4.16342 
1247 1 3.46952 4.20394 -6.07035 
3433 2 3.48575 4.07358 -4.71129 
2894 2 3.29598 4.80116 -4.33652 
1398 1 4.53783 3.82208 -5.03677 
3298 2 5.83018 3.28996 -5.58895 
2917 2 5.53336 4.05642 -5.54618 
251 1 4.74918 4.6287 -4.45339 
115 1 6.95479 3.29625 -5.5697 
13 1 6.53304 4.49191 -5.83222 
1882 1 7.03122 4.30989 -5.28328 
1939 1 -7.0181 5.04323 -4.69287 
3147 2 -6.52972 4.69104 -5.83019 
610 1 -6.28371 5.75398 -4.53875 
3330 2 -6.8839 5.4885 -5.79679 
1232 1 -4.63086 5.25174 -5.34601 
1490 1 -5.96599 5.16844 -5.06849 
1631 1 -3.34468 5.1736 -5.92975 
1691 1 -3.66137 5.76912 -5.43766 
1235 1 -3.95498 5.2665 -4.43113 
3458 2 -2.7082 4.79864 -4.83167 
2988 2 -2.87305 5.50649 -4.68212 
1499 1 -1.55544 4.9017 -4.7034 
1652 1 -1.98877 5.32679 -5.50185 
159 1 -1.61923 4.52592 -5.7484 
3207 2 -0.72087 5.53632 -5.48686 
894 1 0.255984 5.52332 -4.56354 
3392 2 -0.337649 4.69658 -5.47234 
1505 1 0.570065 5.54729 -5.56704 
2598 1 1.19447 5.41011 -4.94796 
23 1 1.73988 4.84668 -4.76974 
586 1 2.13559 5.66946 -4.90407 
1838 1 2.47875 6.37326 -5.27088 
492 1 2.6707 4.94689 -5.18947 
1513 1 4.23087 4.80541 -5.30471 
862 1 3.43163 5.12358 -5.87018 
302 1 3.76768 5.63053 -5.32736 
2927 2 5.50181 4.8703 -5.35959 
1992 1 4.62623 5.59063 -5.8791 
1667 1 6.69039 5.32615 -5.16041 
2703 1 -7.06164 5.91861 -4.67475 
2747 2 -6.87545 6.30772 -5.72192 
3487 2 -7.13258 7.12269 -5.58662 
2191 1 -5.93876 6.29565 -5.09714 
1246 1 -5.17445 6.59574 -5.03497 
1893 1 -4.36035 6.02355 -4.90069 
1885 1 -5.48722 5.63887 -5.61608 
1718 1 -3.85004 -6.53521 -6.17357 
2332 1 -3.59678 6.76012 -5.75888 
1394 1 -1.8003 6.48346 -5.62746 
3265 2 -3.13117 6.34098 -4.55388 
1577 1 -1.90298 5.88253 -4.92013 
3018 2 -0.742932 6.27761 -5.26446 
2096 1 0.566203 6.38804 -5.14188 
2978 2 1.44955 6.6462 -5.89426 
849 1 0.932814 7.12796 -4.81921 
825 1 1.32935 6.23733 -4.71311 
696 1 1.89971 6.8878 -4.77032 
1382 1 3.3176 7.03544 -5.26606 
2564 1 2.54695 7.1286 -5.52612 
486 1 2.89559 5.7669 -5.51036 
224 1 4.15676 6.48507 -5.42764 
3257 2 5.3732 5.68064 -5.18806 
2971 2 5.278 6.4956 -4.95135 
1320 1 6.35772 7.08356 -5.17379 
2539 1 6.45201 6.08071 -5.30868 
2051 1 -6.76195 -6.95306 -3.63558 
1994 1 -6.41056 -6.50037 -4.49519 
1864 1 -4.44668 -6.5927 -3.9335 
3228 2 -5.65333 -6.02723 -3.58161 
3469 2 -5.48671 -6.79956 -3.87168 
3413 2 -3.36733 -6.58088 -4.30797 
1955 1 -4.11123 -6.49417 -3.28048 
3562 2 -3.47127 -5.8845 -4.13759 
104 1 -2.22132 -6.42167 -4.51211 
2176 1 -2.40077 -6.90558 -3.75307 
2283 1 -2.33475 -6.12705 -3.79487 
356 1 -1.53415 -7.05376 -3.85074 
2524 1 -1.4124 -6.21811 -3.65491 
1107 1 -0.638695 -7.00543 -3.98213 
1881 1 -0.648082 -5.81316 -3.82166 
1196 1 0.0548917 -6.6927 -4.64927 
3236 2 0.382542 -6.61656 -3.39764 
2587 1 -0.697586 -6.84974 -3.06602 
635 1 0.726323 -6.06241 -4.27041 
1211 1 1.33819 -6.61843 -4.18627 
938 1 1.62486 -6.45699 -3.32705 
3303 2 2.62449 -5.70804 -3.85163 
3497 2 2.69326 -6.49582 -3.92504 
2172 1 3.94495 -6.3199 -4.00021 
709 1 3.62995 -5.54408 -4.47745 
451 1 3.72076 -5.52498 -3.38459 
811 1 4.23716 -7.12703 -3.89651 
2926 2 5.05999 -7.17871 -4.87803 
779 1 5.8919 -5.97777 -4.21613 
1442 1 5.14407 -6.47834 -3.64744 
1146 1 4.61121 -5.77325 -3.49547 
929 1 7.01999 -6.88235 -4.38131 
1312 1 -6.64218 -5.91476 -4.03897 
1000 1 6.16489 -6.69138 -4.71421 
2462 1 5.62635 7.11046 -3.81913 
587 1 -6.72238 -5.05381 -4.25119 
2896 2 -5.72943 -4.4384 -3.28073 
3375 2 -5.87911 -5.30869 -3.43319 
138 1 -4.68698 -5.79274 -3.6251 
1299 1 -4.80097 -5.60125 -4.47212 
517 1 -4.7405 -4.79374 -3.71417 
3536 2 -3.82675 -5.25351 -3.96521 
1086 1 -2.40209 -5.43304 -4.19415 
2310 1 -2.66225 -4.6536 -3.43743 
647 1 -1.70208 -5.3986 -3.57032 
708 1 -0.884544 -5.13884 -3.42908 
1425 1 0.582321 -4.98103 -4.17315 
1747 1 -0.52783 -4.78305 -4.14689 
1967 1 1.51244 -4.89763 -4.42952 
1511 1 1.43683 -5.64757 -3.66479 
1327 1 1.26301 -4.76664 -3.36983 
2918 2 2.4923 -4.89388 -3.74729 
2469 1 3.53517 -4.96597 -3.98944 
3340 2 4.89873 -5.06893 -4.38805 
2825 2 4.77176 -5.75726 -4.64924 
677 1 5.39848 -5.53871 -3.61839 
1013 1 6.88202 -5.11018 -3.73824 
1493 1 6.01271 -4.88428 -3.86774 
2571 1 6.88807 -5.945 -4.10728 
523 1 -6.31187 -3.44389 -4.38341 
1182 1 -6.9237 -4.14609 -3.87219 
935 1 -5.49753 -3.80109 -4.24015 
392 1 -4.98305 -3.67233 -3.45322 
1609 1 -4.72279 -3.93029 -4.50211 
3376 2 -3.62751 -4.55221 -3.99546 
3083 2 -3.92527 -3.86144 -3.86973 
959 1 -2.57855 -4.61083 -4.30969 
1928 1 -3.45025 -3.52437 -4.92385 
2083 1 -2.85257 -3.65562 -4.32737 
401 1 -1.92842 -4.41425 -3.44128 
3285 2 -1.61442 -4.34415 -4.45438 
728 1 -0.770436 -4.01022 -3.79343 
2916 2 -1.74954 -3.54903 -4.32647 
15 1 -0.699314 -2.88738 -3.87494 
6 1 -1.18677 -4.44989 -3.27644 
2491 1 0.0358413 -3.61513 -3.9321 
26 1 0.223732 -4.32405 -4.42972 
27 1 0.672661 -3.20072 -3.45615 
1799 1 0.831475 -4.10769 -3.83328 
247 1 1.49545 -4.1211 -4.33973 
566 1 1.23423 -3.25725 -4.10137 
3379 2 2.27378 -4.22013 -3.62698 
3230 2 2.13082 -3.54455 -3.42371 
1653 1 3.30321 -3.91561 -3.81989 
891 1 3.18164 -4.57763 -4.71047 
2857 2 4.32387 -3.72693 -4.38344 
742 1 3.94661 -4.20688 -3.25551 
3244 2 4.43423 -4.45021 -4.28267 
2336 1 5.40082 -4.04588 -3.62345 
72 1 5.3412 -3.47226 -4.41356 
2507 1 5.04829 -3.14813 -3.16611 
85 1 6.51193 -4.12495 -3.61519 
1145 1 6.94352 -3.37051 -3.63723 
960 1 -6.81737 -1.69263 -4.34919 
1999 1 -6.16991 -2.43207 -4.12374 
1595 1 -6.94418 -2.73792 -4.22136 
2388 1 -5.16266 -2.25545 -4.14997 
572 1 -5.49308 -2.94788 -3.99284 
1835 1 -3.23543 -1.97947 -4.28548 
3229 2 -4.10589 -3.07571 -3.68825 
3447 2 -4.18927 -2.27808 -3.54083 
1446 1 -3.05753 -2.79162 -4.22672 
904 1 -2.89784 -2.94606 -3.32989 
2766 2 -2.06055 -1.97358 -4.25747 
1028 1 -1.14331 -2.20118 -3.5578 
3198 2 -1.99339 -2.74317 -4.29547 
969 1 -1.57278 -1.70478 -3.1014 
2044 1 0.221254 -2.52869 -3.53451 
3015 2 2.15326 -2.84751 -3.20026 
202 1 0.995627 -2.46593 -3.88691 
1385 1 3.17728 -3.07855 -3.73282 
303 1 2.73906 -2.89861 -4.29129 
922 1 2.68339 -2.05664 -4.13004 
3353 2 4.17943 -2.97349 -4.01122 
3134 2 4.15514 -2.19114 -3.98262 
1658 1 5.30675 -2.66643 -3.77639 
1548 1 5.04277 -1.68849 -4.23029 
1496 1 5.8963 -2.05642 -3.29852 
316 1 5.88553 -3.23572 -3.63304 
3116 2 6.40643 -2.44118 -4.58384 
2432 1 6.668 -2.58151 -3.44839 
1841 1 -6.86769 -0.901815 -3.99537 
1627 1 -6.00034 -0.819297 -3.64109 
1428 1 -5.86091 -1.67576 -3.75319 
1514 1 -5.08818 -1.45282 -4.161 
1316 1 -4.04112 -0.954895 -4.34435 
2302 1 -3.4035 -1.09368 -3.68069 
3470 2 -4.38488 -1.50791 -3.33154 
2674 1 -3.21862 -1.28821 -4.73953 
2748 2 -2.21985 -1.30139 -3.99466 
2789 2 -2.44232 -0.568289 -3.7926 
882 1 -2.99679 -2.10573 -3.59817 
871 1 -1.01446 -1.6363 -4.3261 
2241 1 -0.945518 -1.21735 -3.57927 
3585 2 0.0734387 -1.76802 -4.71945 
2395 1 -0.291235 -1.94172 -3.72442 
2542 1 -0.177659 -0.777267 -3.40848 
370 1 0.460017 -1.46563 -3.66556 
2298 1 1.98739 -1.58329 -4.24397 
607 1 1.186 -1.50509 -3.91523 
506 1 3.25136 -2.18261 -3.52426 
876 1 2.5604 -0.834688 -3.91452 
1237 1 3.08844 -1.28587 -4.44755 
2914 2 3.89855 -1.2197 -3.726 
234 1 4.67417 -0.775466 -4.23794 
423 1 5.81292 -1.10844 -3.19978 
2054 1 6.99867 -1.63272 -3.67185 
2856 2 6.15904 -1.50941 -4.30636 
2902 2 5.942 -0.535973 -4.31769 
1575 1 6.7666 -0.732223 -3.38284 
3186 2 -6.38051 0.15325 -4.44426 
2300 1 -6.39912 -0.014622 -3.36654 
56 1 -5.34473 -0.519802 -4.1078 
2278 1 -4.76811 -0.196169 -4.42329 
1815 1 -4.57911 0.55989 -4.05058 
2132 1 -4.04411 -0.192767 -3.99867 
697 1 -3.34225 0.400426 -4.20595 
1002 1 -1.99194 0.62981 -4.62754 
3490 2 -2.46286 0.226835 -3.72228 
1531 1 -1.13507 -0.55069 -3.94082 
1910 1 -1.37133 0.323698 -4.04136 
3555 2 -0.0793138 -0.258135 -4.26705 
2950 2 -0.203862 0.591507 -4.08674 
2020 1 0.894316 -0.407361 -3.62892 
2187 1 1.71799 -0.400244 -4.07917 
858 1 1.05658 0.302125 -4.29479 
2237 1 1.65001 0.651805 -3.65635 
1296 1 0.728814 0.443405 -3.52689 
130 1 3.04896 -0.354129 -4.43348 
1700 1 2.40983 0.0733939 -3.86033 
2068 1 3.54512 0.581735 -4.54822 
1895 1 4.36739 0.787431 -3.93804 
3483 2 3.66368 -0.598086 -3.44692 
3305 2 3.50437 0.297951 -3.42785 
1911 1 4.15647 0.0165315 -4.44866 
319 1 4.66365 -0.0758466 -3.54238 
2819 2 5.65882 0.175219 -3.8312 
253 1 7.06618 -0.45841 -4.31753 
34 1 -7.16809 0.0580645 -3.46186 
654 1 6.79381 0.248711 -4.13759 
3263 2 -6.40522 1.03989 -4.35219 
3260 2 -6.55369 1.7547 -4.28245 
2383 1 -5.5453 1.39364 -4.75179 
408 1 -5.45644 0.263461 -3.77596 
829 1 -5.76589 1.15009 -3.46099 
500 1 -5.07766 1.26043 -4.00152 
1793 1 -3.89809 0.971273 -3.85978 
2177 1 -3.34613 1.39529 -4.30494 
2687 1 -4.43624 1.8635 -3.63141 
3588 2 -2.52033 0.927023 -3.42439 
2490 1 -2.39453 1.69304 -4.31912 
1512 1 -1.32681 2.1621 -4.71871 
2529 1 -1.2277 1.34915 -4.66287 
2663 1 -1.68019 1.24498 -3.91922 
1971 1 0.433981 2.03887 -4.0267 
3196 2 -0.417916 1.32196 -3.92079 
972 1 0.120177 1.02354 -3.05883 
1337 1 1.66289 1.71941 -3.29371 
446 1 0.841466 1.36235 -3.43508 
886 1 2.89252 0.809116 -4.14296 
2722 1 2.48369 1.42446 -3.65264 
2637 1 2.9979 1.23316 -5.16828 
1890 1 2.42814 0.464308 -3.04652 
840 1 4.70813 1.35488 -3.34115 
941 1 3.68802 1.45499 -4.0621 
556 1 2.82979 1.58355 -4.43977 
2021 1 5.12727 0.901665 -4.65914 
3209 2 5.85386 0.939694 -3.76853 
3369 2 5.61 1.91678 -3.64637 
510 1 6.78626 1.11637 -4.08337 
1781 1 6.9829 0.916217 -3.14691 
3033 2 -6.74724 2.49844 -4.07119 
2751 2 -7.01516 3.14957 -3.91714 
2541 1 -5.38787 2.11248 -3.61449 
92 1 -5.96576 2.49608 -3.22291 
668 1 -5.94983 3.06751 -4.21939 
412 1 -4.32444 2.993 -3.64524 
120 1 -3.63832 2.42562 -3.99886 
1336 1 -3.66555 3.35985 -4.10853 
892 1 -1.86745 2.29168 -4.02136 
1091 1 -2.76777 2.49015 -4.35776 
2860 2 -0.625625 2.08566 -3.7993 
3006 2 -0.746427 2.88904 -3.63731 
353 1 -1.77513 3.02357 -4.41624 
583 1 0.447291 2.88316 -3.82207 
1638 1 0.158376 3.21981 -4.5555 