ITEM: TIMESTEP
31100
ITEM: NUMBER OF ATOMS
3594
ITEM: BOX BOUNDS pp pp pp
-7.1930513144799431e+00 7.1930513144799431e+00
-7.1930513144799431e+00 7.1930513144799431e+00
-7.1930513144799431e+00 7.1930513144799431e+00
ITEM: ATOMS id type x y z 
317 1 -5.96348 -6.91899 -6.58861 
695 1 -6.75201 -6.61462 -6.30096 
3477 2 -4.54846 -7.14421 -5.96862 
833 1 -4.38397 -7.04267 -7.12513 
1490 1 -5.18984 7.13897 -6.93501 
1906 1 -5.61837 -6.33409 -6.77274 
3520 2 -4.86707 -6.45537 -5.93428 
601 1 -3.68757 -6.74401 -7.00829 
1640 1 -3.76422 -6.26806 -6.15051 
2944 2 -2.49505 -6.70223 -6.59588 
1567 1 -1.83705 7.13998 -5.82846 
1167 1 -1.29445 -6.77953 -6.43068 
1905 1 0.469859 -6.8622 -6.48074 
786 1 -0.581449 -7.04963 -6.21152 
2415 1 0.90606 -6.10477 -6.55572 
2048 1 2.03837 -6.67314 -6.61494 
3442 2 3.3319 -6.27884 -6.02509 
949 1 2.77833 -6.42811 -7.09468 
2256 1 4.66241 -6.68652 -6.24949 
3587 2 3.56799 -6.98234 -6.21389 
3208 2 5.64745 -6.40559 -6.71202 
2787 2 5.88015 -7.0356 -7.10758 
639 1 6.42445 7.08621 -6.33744 
1373 1 6.72028 -6.44127 -6.44426 
2015 1 6.23784 -6.58201 -5.64554 
1871 1 6.91723 -6.8052 7.13824 
1184 1 -6.35927 -5.94549 -6.3423 
1697 1 -6.08743 -5.214 -6.69726 
1273 1 -4.61809 -6.15009 -6.974 
2706 1 -4.90066 -5.2619 -6.68869 
977 1 -3.94563 -5.59688 -7.06678 
1654 1 -3.96663 -4.59032 -6.8708 
2176 1 -4.07091 -5.47099 -6.31314 
3574 2 -2.77391 -5.98748 -6.48358 
2981 2 -2.9749 -5.2097 -6.33655 
579 1 -1.50194 -5.77078 -6.32874 
2018 1 -1.73953 -6.08969 -7.08725 
386 1 -1.91664 -4.90318 -6.30189 
3368 2 -0.581673 -5.86299 -7.16692 
3019 2 -0.694115 -5.17427 -6.78259 
2537 1 0.212602 -5.57928 -6.36259 
1734 1 0.29089 -5.1859 -7.13844 
1689 1 0.354998 -4.86156 -5.9067 
290 1 1.79926 -5.87553 -6.52301 
774 1 0.99809 -5.20508 -6.46892 
1234 1 1.78217 -5.14375 -6.21313 
1538 1 2.49993 -5.5417 -6.97981 
2631 1 2.30856 -4.77535 -6.57109 
2957 2 3.05363 -5.62923 -6.07354 
701 1 3.07529 -5.03342 -7.12397 
2933 2 3.15059 -4.91658 -5.92332 
589 1 3.97151 -5.0777 -6.64581 
2357 1 4.01311 -4.41096 -7.13166 
2009 1 4.33119 -5.81557 -6.44714 
645 1 3.63818 -5.75709 -7.15304 
2812 2 5.43966 -5.68636 -6.80364 
3212 2 5.16086 -4.77599 -6.56319 
1345 1 -7.14701 -5.45199 -6.14383 
1527 1 6.09296 -5.35665 -5.9892 
1263 1 6.5437 -5.63019 -6.76944 
1597 1 6.2308 -4.72478 -6.97615 
2727 1 -6.49498 -3.93686 -5.8056 
2975 2 -6.80757 -4.09438 -6.92684 
2122 1 -5.68356 -4.46952 -6.509 
3126 2 7.15725 -3.54011 -6.63053 
843 1 -4.97264 -4.26738 -6.49743 
1477 1 -3.56467 -3.74136 7.09471 
2480 1 -4.28196 -3.77709 -6.60881 
1406 1 -4.3617 -4.44732 -5.85046 
890 1 -2.561 -3.56546 -7.02508 
228 1 -2.02318 -4.02268 -6.34371 
3061 2 -3.04441 -4.35792 -6.13549 
3484 2 -0.790034 -4.41477 -6.71407 
2808 2 -1.0426 -3.63952 -6.51888 
2599 1 0.415341 -4.16787 -6.58105 
2718 1 -0.125959 -3.90769 -5.81532 
1210 1 -0.0109811 -3.50288 -7.03942 
1897 1 1.13238 -4.18837 -6.13043 
1859 1 1.70469 -3.09534 -6.03281 
3503 2 1.1062 -3.89927 6.9448 
19 1 1.9784 -4.01487 -6.45676 
628 1 2.24172 -3.61915 7.07006 
296 1 3.09141 -3.36535 -6.59289 
329 1 3.0621 -4.17247 -6.88351 
1051 1 4.297 -3.6393 7.13793 
1034 1 3.98993 -3.84045 -6.49366 
3266 2 5.10725 -4.03946 -6.29921 
2767 2 4.88199 -3.31416 -6.14454 
1372 1 6.29794 -4.62596 -6.20621 
2211 1 6.10642 -3.86799 -6.8357 
2353 1 -6.30891 -2.90317 -5.86674 
1361 1 -5.8928 -3.59098 -6.47541 
2535 1 -6.24709 -2.72972 -6.72738 
2612 1 -5.48852 -2.32889 -6.14356 
1434 1 -5.21073 -3.15419 -6.35214 
2114 1 -4.53997 -2.56175 -6.23119 
743 1 -3.75377 -2.20382 -6.78296 
174 1 -4.17586 -2.92327 -6.83385 
2516 1 -3.10369 -2.92319 -7.03259 
871 1 -2.30168 -3.14169 -6.3866 
1800 1 -2.60706 -2.24227 -6.52586 
3332 2 -1.18918 -2.80808 -6.4758 
3234 2 -1.29997 -1.96933 -6.27893 
2057 1 -0.355324 -2.43574 7.18854 
607 1 -0.156791 -1.76782 -6.67795 
250 1 0.0168268 -3.09086 -6.18178 
527 1 0.314452 -2.2066 -5.9569 
2520 1 0.860491 -3.36693 -5.96486 
3347 2 1.06688 -3.15832 7.14401 
2804 2 0.75921 -2.29916 -6.98225 
1837 1 1.60487 -2.21139 -6.31608 
483 1 2.77046 -2.34671 -6.37523 
985 1 2.29493 -3.15074 -6.66022 
151 1 2.1089 -2.59197 7.11725 
1876 1 4.20871 -2.74617 7.14 
1085 1 3.88263 -2.01262 -6.71107 
1695 1 3.64088 -2.7983 -6.545 
309 1 4.75469 -2.06837 -7.09702 
3550 2 4.88544 -2.48999 -6.12532 
1362 1 5.029 -3.12625 7.05102 
2510 1 5.53592 -2.1732 -6.80683 
346 1 6.05476 -2.20716 -5.97748 
1472 1 6.0098 -3.12999 -6.35506 
3087 2 6.97824 -2.87015 -6.85268 
547 1 -6.55578 -1.86987 -6.57105 
625 1 -6.4151 -0.884821 -6.02574 
2352 1 -6.49236 -1.083 -6.851 
1450 1 -4.52991 -1.80476 -6.61947 
1445 1 -5.66146 -1.35822 -6.04834 
3360 2 -5.50114 -1.59068 -7.12476 
3097 2 -5.39609 -0.804096 -6.91084 
1001 1 -4.68568 -1.00613 -6.1426 
351 1 -4.11726 -1.12639 -6.77746 
667 1 -3.30319 -1.44705 -6.68708 
1722 1 -3.75033 -0.430594 -6.44443 
900 1 -2.62564 -1.43711 -6.00286 
722 1 -2.40029 -1.39142 -7.18348 
3105 2 -1.70433 -1.17111 -6.31951 
2013 1 -0.233136 -1.17976 -5.99056 
994 1 -0.750559 -0.646006 -6.50119 
3088 2 0.604939 -0.894481 -6.79178 
3151 2 0.849095 -1.53701 -7.01782 
859 1 1.32084 -1.05733 -5.92021 
171 1 1.81717 -0.862096 -6.84657 
823 1 2.12213 -1.46735 -6.25193 
76 1 3.15685 -1.45195 -6.03109 
1524 1 3.75843 -0.983652 -6.59989 
478 1 4.66932 -1.25545 -6.7255 
2972 2 4.67572 -1.87349 -5.80045 
148 1 5.52518 -1.25818 -6.65855 
140 1 5.16022 -0.344088 -6.40385 
2840 2 6.87419 -2.03609 -6.68363 
2797 2 6.71306 -1.34758 -6.40756 
1414 1 6.08582 -1.25695 7.00266 
385 1 -6.68895 -0.15146 -6.68641 
2151 1 -6.97078 0.725292 -6.61193 
2641 1 -6.48821 0.318055 -5.78233 
3127 2 -5.5894 0.0269697 -6.81051 
1233 1 -4.5273 0.712701 -6.70938 
1457 1 -3.79601 0.361757 -6.22119 
2543 1 -4.34774 -0.0543218 -6.90693 
2560 1 -2.6263 0.141632 -6.5326 
1112 1 -2.78284 -0.728184 -6.55409 
323 1 -1.22758 -0.747765 7.16609 
1265 1 -0.941493 0.363109 -6.25165 
1523 1 -1.76176 -0.00670773 -6.86948 
1828 1 -0.867496 0.313672 -7.19097 
3311 2 0.571466 -0.0500013 -6.64847 
2928 2 0.0117124 0.510872 -6.44817 
1978 1 1.40735 0.542758 -6.86411 
2708 1 1.78636 -0.21885 -6.23098 
1057 1 2.64751 -0.701296 -6.32406 
414 1 3.05164 -0.00204445 -5.88693 
2960 2 2.60443 0.327533 -7.17582 
1698 1 4.39945 -0.41729 -6.77741 
312 1 3.57647 -0.177216 -6.49217 
624 1 4.11985 0.554785 -6.70361 
1185 1 4.91013 0.458044 -6.55322 
50 1 5.81848 -0.223757 -6.8612 
305 1 5.61721 0.754859 -6.9256 
3135 2 6.51667 -0.660391 -6.31996 
3038 2 6.51121 0.0754469 -6.08887 
3007 2 -5.76164 0.859347 -6.67973 
3140 2 -6.06305 1.67736 -6.62035 
1229 1 -7.09201 1.58925 -6.22496 
1335 1 -4.90701 1.86326 -6.74924 
668 1 -3.99332 1.61259 -5.89641 
2010 1 -4.73042 1.08749 -6.0422 
3148 2 -3.74746 1.93916 -6.85941 
1232 1 -4.37091 2.25788 -6.02507 
3329 2 -3.64208 1.14177 -7.1326 
83 1 -3.1984 0.99984 -6.01043 
1370 1 -2.78855 1.6865 -6.45934 
2505 1 -2.3514 1.02925 -6.7295 
343 1 -1.81669 1.70435 -6.70506 
2523 1 -1.52351 0.831276 -6.72448 
2508 1 -0.897893 1.47464 -5.96589 
1525 1 -0.632589 1.38224 -7.06088 
3078 2 0.140981 1.36259 -6.20274 
175 1 1.1161 1.50912 -6.61108 
867 1 1.28203 0.587814 -5.8113 
2730 1 2.41043 0.47383 -6.07939 
785 1 3.22215 0.881151 -6.47806 
3459 2 2.26802 1.17972 -7.07277 
3393 2 2.41453 1.86345 -6.80446 
1176 1 3.08708 1.91828 -6.11834 
1113 1 3.56148 1.64354 -7.15519 
2276 1 4.01467 1.6664 -6.41198 
2183 1 4.82207 1.37857 -6.33843 
1092 1 5.56181 1.78339 -6.81316 
3060 2 6.36287 0.870443 -6.00983 
2066 1 6.51671 0.766631 -7.03703 
565 1 6.48206 1.94478 -6.89552 
3465 2 -6.26118 2.45523 -6.21334 
539 1 -7.06817 2.67958 -6.91515 
1318 1 -5.35244 2.19577 6.95031 
1725 1 -5.12001 2.52174 -6.50207 
3093 2 -3.95816 2.71828 -7.03375 
2601 1 -3.26311 2.0415 -5.85665 
883 1 -2.50994 2.64342 -6.71837 
803 1 -3.24116 2.94067 -6.30607 
2522 1 -0.84406 2.24948 -6.8698 
1619 1 -1.65523 2.49747 -6.38692 
3444 2 -0.0184437 2.25599 -6.13333 
2813 2 -0.26496 3.00543 -6.0278 
1368 1 1.09839 2.41699 -6.65495 
3478 2 1.87662 3.42563 -6.56646 
3417 2 2.10282 2.56802 -6.63178 
2093 1 3.05233 3.42026 -6.99836 
899 1 2.92643 2.75658 -6.01134 
2092 1 3.94355 2.54935 -6.13948 
284 1 4.91545 2.33511 -6.35198 
865 1 5.34326 3.31745 -6.95022 
404 1 5.76462 2.54426 -6.74394 
862 1 4.71737 3.09121 -6.07238 
122 1 6.58184 2.92713 -6.66688 
131 1 6.94784 2.38489 -5.9777 
2736 2 -6.36487 3.31128 -6.01724 
3238 2 -6.47785 4.16189 -5.95619 
141 1 -6.23305 3.96401 -7.19149 
805 1 -7.09771 3.59845 -7.08581 
2142 1 7.11725 4.6871 -6.81584 
35 1 -5.53021 3.35122 -6.57609 
491 1 -5.23698 3.90411 -5.91855 
522 1 -5.43588 4.41593 -6.50395 
2783 2 -4.47169 3.26586 -6.87866 
3408 2 -4.23674 3.94611 -6.61217 
448 1 -2.98675 3.73801 -6.61349 
597 1 -2.1373 3.49848 -6.24683 
2603 1 -1.29083 3.22048 -6.55963 
287 1 -1.30116 3.19607 -5.64941 
1517 1 -1.17139 4.14963 -6.4905 
1308 1 -1.86161 4.58231 -6.17579 
1396 1 0.328615 3.31586 -6.97787 
792 1 -0.406955 4.01406 -6.80798 
2271 1 0.478707 4.33091 -6.88091 
1877 1 0.787487 3.39449 -6.3066 
3466 2 1.84945 4.21333 -6.32292 
1792 1 1.10912 3.984 7.03824 
1261 1 3.08536 3.98052 -6.3946 
1247 1 2.86487 4.8008 -6.83494 
1338 1 3.71526 3.47634 -6.11355 
3223 2 3.9399 4.56412 -6.85612 
3551 2 4.24499 3.89594 -7.08323 
2530 1 5.98715 3.61937 -6.53095 
16 1 4.98437 4.03556 -6.24249 
339 1 6.95354 3.85174 -6.33706 
213 1 6.37545 4.54865 -6.49303 
1662 1 -6.33862 4.79986 -6.98326 
1410 1 -6.48945 5.65424 -6.93672 
3471 2 -4.5037 5.29758 -6.59898 
1004 1 -5.68765 5.66992 -6.58386 
1246 1 -5.32904 5.2057 7.15359 
3411 2 -4.41145 4.72176 -6.10974 
945 1 -3.37525 4.85057 -6.80975 
3463 2 -4.34929 6.12109 -6.36627 
2563 1 -3.69019 4.48726 -5.49258 
2839 2 -2.32404 4.74468 -7.13253 
2832 2 -2.10891 5.46135 -7.02356 
2270 1 -2.91691 4.53557 -6.19696 
345 1 -2.53691 5.42722 -5.88239 
1652 1 -3.28342 5.76841 -6.6335 
197 1 -1.50913 5.82634 -6.19925 
2635 1 -1.28465 5.05415 -6.51421 
1435 1 -0.515143 5.7257 -6.51168 
2446 1 -0.352182 4.99112 -6.80879 
1639 1 0.716793 5.65062 -6.82962 
2630 1 0.41674 5.34339 -6.19108 
3138 2 1.75438 4.94613 -6.09673 
2304 1 0.998914 4.85943 7.1773 
2831 2 1.54767 5.71064 -5.8937 
1346 1 1.56309 5.48047 7.15011 
1249 1 2.47809 5.57124 -6.97779 
3215 2 3.90194 5.35999 -6.76596 
2790 2 3.70574 6.06556 -6.77187 
2305 1 5.02052 5.70573 -6.20627 
2703 1 5.81114 5.42614 -6.20507 
916 1 5.47892 4.78741 -6.48996 
1311 1 4.92787 5.17786 -7.04044 
1727 1 6.68506 5.33468 -6.3148 
1918 1 -7.10053 7.05469 -6.60172 
1291 1 -6.25991 6.66519 -6.70829 
2582 1 -5.72811 6.47405 -6.0596 
2308 1 -5.3765 6.28097 -7.15716 
3150 2 -4.80465 6.58071 -6.16188 
2342 1 -3.55618 6.75641 -6.6921 
3268 2 -2.48891 6.86052 -6.82521 
101 1 -3.1387 6.33512 -5.83656 
3454 2 -2.39675 6.11672 -6.8905 
741 1 -1.33314 6.5074 -6.4034 
104 1 -1.10186 7.04764 -6.95386 
238 1 -1.14523 6.16018 7.1553 
1521 1 -0.293942 6.46325 -6.48868 
2096 1 0.31997 6.11135 -5.8483 
1634 1 0.605271 6.60283 -6.61495 
2492 1 1.28105 -7.03346 -6.87927 
2675 1 0.936499 6.52311 7.1604 
1088 1 2.51914 7.04854 -6.96205 
2212 1 2.59512 5.84114 -6.23076 
1016 1 1.86077 6.41067 -6.98003 
2431 1 2.74441 6.23322 -7.18971 
96 1 2.41908 6.76372 -6.17219 
3569 2 3.5904 6.75556 -6.47916 
2088 1 4.91789 6.37235 -6.74726 
1530 1 5.7101 6.28893 -6.12882 
924 1 4.8661 6.85586 -6.11582 
66 1 6.69495 6.16703 -6.48561 
2656 1 -6.98459 6.30806 -7.0866 
587 1 -6.02551 -5.87798 -4.72653 
2747 2 -6.96923 7.14174 -5.59697 
472 1 -6.01751 -6.34484 -5.53312 
2191 1 -6.01716 -6.95297 -4.76646 
2248 1 -5.17597 -6.53353 -4.751 
1609 1 -4.38153 -6.67395 -4.76412 
246 1 -3.74607 -6.98006 -5.29427 
1643 1 -2.94757 -6.16799 -5.35392 
1149 1 -2.26198 -6.66572 -4.93764 
1836 1 -0.861594 -6.22239 -5.98126 
3594 2 -0.944351 -6.98211 -5.11022 
3322 2 -1.17441 -6.24143 -4.94765 
2002 1 -2.02444 -6.25478 -5.71194 
1333 1 -0.0560085 -6.48167 -5.91268 
1107 1 0.21935 -6.75977 -4.86177 
3128 2 1.11065 -6.2887 -5.53588 
2978 2 1.40393 -7.03374 -5.74354 
2379 1 2.4091 -6.69746 -5.81539 
1416 1 3.05821 -6.79731 -5.15999 
1945 1 2.18664 -6.19745 -5.03358 
168 1 3.90755 -6.52396 -5.197 
2539 1 5.35323 -6.40009 -5.61872 
2574 1 5.59491 7.05682 -5.73083 
709 1 4.44896 -6.95743 -5.50061 
1312 1 5.88622 -5.87681 -4.9793 
2573 1 6.07404 -7.09083 -4.8735 
3487 2 -7.17436 -6.65624 -5.09625 
52 1 -6.50857 -4.9003 -5.95207 
392 1 -6.39939 -5.55077 -5.42552 
1449 1 -6.33766 -4.78949 -4.84738 
3416 2 -5.05728 -5.6736 -5.7115 
3325 2 -5.4706 -5.02013 -5.61439 
1086 1 -4.39345 -5.72053 -4.8683 
1140 1 -4.55814 -4.77514 -4.8194 
520 1 -3.92344 -5.04455 -5.39667 
959 1 -3.78441 -5.91401 -5.41198 
1585 1 -2.00703 -5.43685 -5.49511 
897 1 -3.00312 -5.28052 -5.24509 
582 1 -2.44406 -5.85214 -4.61016 
2453 1 -1.21391 -4.85183 -5.72678 
3480 2 -1.4387 -5.45149 -4.71035 
2368 1 0.0479642 -5.85135 -5.15156 
245 1 -0.603443 -5.4346 -5.69758 
1552 1 0.0224926 -5.10304 -4.65368 
2826 2 0.971684 -5.46353 -5.16267 
1967 1 1.74886 -4.77465 -4.32023 
2623 1 2.09017 -5.84917 -5.7684 
1385 1 3.01466 -4.97535 -4.64778 
2566 1 2.99845 -5.99874 -4.92366 
1211 1 2.39957 -5.38075 -5.07217 
190 1 3.67846 -5.45798 -5.23669 
1415 1 4.46154 -5.83155 -5.53734 
847 1 4.43045 -4.85592 -5.71137 
144 1 5.25012 -5.32221 -5.62695 
2828 2 6.98479 -5.77269 -5.11845 
3010 2 6.72198 -4.96637 -4.87077 
318 1 -6.67914 -4.04643 -4.88802 
1006 1 7.15635 -4.62513 -5.87912 
1151 1 -6.91643 -3.27547 -5.44821 
523 1 -6.39814 -3.3651 -4.50409 
2912 2 -5.51217 -4.30991 -5.47277 
2737 2 -5.4087 -3.54751 -5.36225 
1071 1 -5.02239 -3.74498 -4.39229 
572 1 -4.40801 -3.35983 -5.84074 
477 1 -4.14603 -4.09088 -5.14467 
1979 1 -3.43664 -4.43842 -4.95607 
1629 1 -2.26579 -4.67861 -5.2584 
2083 1 -2.25181 -3.66875 -5.56328 
3041 2 -3.36493 -3.64017 -6.06311 
2058 1 -1.44505 -3.94503 -5.45026 
484 1 -0.606652 -3.55055 -5.11765 
2289 1 -0.344148 -4.64122 -5.37636 
2768 2 0.712687 -3.95013 -4.81263 
3068 2 1.01615 -4.71983 -5.06888 
502 1 1.72447 -3.86055 -5.45878 
26 1 2.39563 -4.33619 -4.67888 
1611 1 1.89065 -4.75984 -5.54215 
3249 2 2.95944 -4.25313 -5.74584 
3014 2 2.8268 -3.55185 -5.51682 
303 1 2.41747 -3.52806 -4.37193 
388 1 4.11181 -3.94255 -5.58364 
2306 1 3.74048 -4.53158 -4.91252 
153 1 3.66865 -3.43237 -4.80559 
452 1 4.82033 -4.29954 -5.21979 
2617 1 5.39015 -3.63905 -5.08164 
85 1 5.83934 -4.46286 -5.27569 
3080 2 6.77659 -4.15681 -4.65105 
2360 1 6.02697 -3.74177 -5.77221 
802 1 6.89501 -3.97218 -5.66038 
874 1 -4.55033 -2.50929 -5.14184 
2890 2 -5.66613 -2.85138 -5.1441 
2974 2 -5.85037 -2.09575 -4.94756 
262 1 -3.44924 -3.30706 -4.8069 
2869 2 -3.40493 -2.88657 -5.84159 
2844 2 -3.5569 -2.12514 -5.76857 
1671 1 -4.30205 -3.35694 -4.8537 
1953 1 -2.90551 -2.10801 -4.73362 
1087 1 -2.6619 -2.92618 -4.98162 
1380 1 -2.28237 -2.43794 -5.7663 
393 1 -0.64375 -2.91196 -4.54273 
594 1 -1.5704 -3.05813 -5.39218 
1474 1 -1.40341 -2.21163 -5.1745 
658 1 -0.600579 -2.72765 -5.50701 
3227 2 0.458303 -3.15588 -4.84609 
3430 2 0.349576 -2.34617 -4.82896 
632 1 -0.519819 -1.91661 -5.49436 
308 1 1.67115 -3.14173 -5.09812 
1313 1 1.16346 -2.39892 -5.58354 
1911 1 1.40289 -2.28136 -4.65205 
2830 2 2.61352 -2.81563 -5.33892 
2150 1 3.86128 -3.05765 -5.6428 
40 1 4.20362 -2.5864 -4.89232 
734 1 5.66973 -2.72398 -5.29055 
2500 1 4.71208 -3.27361 -5.16714 
1226 1 4.96207 -2.42602 -4.7326 
1369 1 -7.08589 -2.36427 -5.59987 
1207 1 6.47706 -2.85129 -5.59087 
90 1 -6.44048 -1.79364 -5.86639 
2993 2 -6.18883 -1.34841 -4.882 
1354 1 -7.12168 -1.76512 -4.64734 
3267 2 -6.191 -0.589824 -4.76955 
41 1 -5.26807 -0.762553 -5.38424 
2699 1 -4.98311 -1.67345 -5.70411 
521 1 -4.81442 -1.06464 -4.73091 
3543 2 -3.8571 -1.34809 -5.60192 
3256 2 -4.08099 -0.546455 -5.28773 
460 1 -2.07823 -1.91153 -5.2138 
1928 1 -2.92575 -1.27758 -5.01868 
2589 1 -2.29037 -0.907149 -5.11822 
2108 1 -3.10415 -0.544754 -5.73463 
1484 1 -1.53752 -1.29536 -4.81427 
3354 2 0.0158023 -1.56883 -4.59285 
858 1 -0.993844 -1.03693 -5.45705 
922 1 0.295438 -0.676366 -5.57106 
2298 1 1.08761 -1.34179 -4.89738 
2105 1 0.67164 -1.50603 -5.64058 
886 1 0.805667 -0.511025 -4.77251 
3356 2 2.32778 -2.08853 -5.35598 
3557 2 2.14062 -1.2465 -5.18109 
2995 2 4.31976 -1.17045 -5.47575 
656 1 3.64268 -2.22953 -5.64556 
1322 1 4.22807 -1.72033 -4.6447 
1830 1 4.1277 -0.68948 -4.61475 
2407 1 3.39724 -1.52937 -5.0937 
194 1 5.68719 -1.3959 -5.91042 
2021 1 5.09205 -1.07063 -4.73138 
850 1 5.59625 -1.74631 -5.15145 
1331 1 6.65876 -1.88498 -5.36463 
1483 1 -7.18261 -1.16342 -5.25464 
34 1 6.28895 -0.845059 -5.07389 
3186 2 -6.29961 0.208605 -4.6569 
1927 1 -6.90714 -0.397064 -5.65789 
2578 1 -5.7501 -0.255379 -5.74265 
2037 1 -4.6641 -0.019702 -6.05544 
2605 1 -5.07607 -0.0502932 -5.07623 
3144 2 -4.03742 0.192157 -5.11092 
2796 2 -2.02665 0.307675 -5.66384 
731 1 -2.13936 0.0230263 -4.65059 
1238 1 -3.02039 0.296494 -5.46333 
3200 2 -1.66466 -0.422296 -5.85518 
640 1 -1.37397 -0.263088 -4.76493 
1812 1 -1.13544 0.481418 -4.78289 
1777 1 0.214178 0.267066 -5.42498 
400 1 -0.521137 -0.254329 -5.50166 
75 1 0.949061 -0.271981 -5.58289 
110 1 3.06008 -0.808665 -5.627 
3449 2 2.01523 -0.618191 -4.73971 
3383 2 2.00731 0.0283996 -5.035 
840 1 3.04084 0.44073 -5.12585 
3317 2 4.27355 -0.384521 -5.59779 
2848 2 4.23963 0.339569 -5.50938 
556 1 3.24018 -0.502443 -4.9207 
2380 1 5.41069 0.394889 -5.82983 
817 1 5.39854 -0.566396 -5.48406 
499 1 5.34737 0.561385 -4.98342 
2068 1 4.99186 -0.147307 -4.64661 
670 1 6.92346 -0.239634 -4.79482 
462 1 6.11051 0.0469552 -5.12537 
1607 1 7.14736 0.44753 -5.15806 
2383 1 -6.19683 1.09336 -5.55301 
2317 1 -6.95764 1.27222 -5.49154 
1224 1 -5.36865 0.547342 -5.62899 
2681 1 -5.53646 1.6138 -4.89323 
928 1 -5.42436 0.754042 -4.83335 
408 1 -5.37378 1.73549 -5.78476 
2466 1 -3.10382 1.19441 -5.22792 
2861 2 -4.26796 0.918975 -5.14859 
3062 2 -4.53231 1.78028 -4.89379 
2939 2 -1.97302 1.12153 -5.60417 
2846 2 -2.16412 1.83265 -5.52284 
2395 1 -2.62893 0.803737 -4.65989 
154 1 -0.826987 0.679155 -5.44007 
1195 1 -1.18763 1.47712 -4.72841 
2542 1 -0.162218 1.18768 -5.14505 
2208 1 0.506917 2.03471 -5.10311 
3241 2 1.68272 1.47013 -4.69747 
583 1 0.808339 1.05812 -5.35343 
851 1 1.94923 1.26139 -5.87541 
925 1 2.8336 1.27022 -5.74582 
3443 2 1.93944 0.760046 -4.933 
1618 1 2.8578 1.39922 -4.70877 
3364 2 4.07328 1.09265 -5.45122 
1883 1 5.10363 1.24098 -5.5361 
2147 1 5.73942 1.35094 -4.82081 
1520 1 4.75005 1.04077 -4.49857 
2584 1 6.48386 0.821564 -4.68814 
3414 2 6.09952 1.58955 -5.82406 
2297 1 -6.67249 2.91131 -5.08469 
115 1 -6.24583 1.9203 -5.40984 
2653 1 -5.77618 2.47661 -4.85012 
829 1 -5.40614 2.82567 -5.66996 
2845 2 -4.67669 2.57008 -4.75316 
822 1 -4.53417 3.07908 -5.84 
561 1 -3.57972 3.01034 -4.78846 
1772 1 -3.78644 2.82962 -5.6125 
1367 1 -3.52891 2.15773 -4.93728 
3117 2 -2.34219 2.6019 -5.42602 
2945 2 -2.62747 3.31897 -5.2324 
1623 1 -1.12383 2.42208 -5.76154 
2326 1 -1.30467 2.29967 -4.81797 
159 1 -1.44247 3.1267 -4.91554 
1993 1 -0.356827 2.01759 -4.95528 
1661 1 -0.653288 2.92185 -4.87743 
2673 1 0.276327 2.8276 -4.94318 
693 1 1.28799 1.79494 -5.75669 
2285 1 1.02978 2.62669 -5.63828 
673 1 1.94721 2.75966 -5.47559 
1923 1 2.63196 3.49148 -5.63893 
84 1 2.41349 2.10326 -5.33221 
295 1 2.58635 2.36899 -4.32079 
3388 2 3.78785 1.8504 -5.07266 
3433 2 3.55303 2.64292 -5.07056 
795 1 4.52811 2.90917 -5.25635 
377 1 5.31326 2.0491 -4.60571 
1066 1 4.78174 2.00317 -5.50719 
2327 1 4.81799 3.10021 -4.43788 
3298 2 5.78824 2.42632 -5.67806 
1667 1 6.9849 3.31989 -5.75483 
2707 1 6.78084 3.24816 -4.98727 
1200 1 7.0922 2.06504 -5.26493 
1169 1 -6.56848 3.73739 -4.8859 
297 1 -5.08415 4.58389 -5.39365 
29 1 -5.76615 3.69948 -5.20047 
443 1 -5.84052 4.68854 -5.08972 
2275 1 -3.58308 3.68986 -5.82859 
59 1 -4.42332 3.81013 -5.38535 
1336 1 -3.68021 3.83058 -4.82537 
2977 2 -2.59319 4.13073 -5.18437 
825 1 -1.51554 4.65443 -4.78787 
1255 1 -1.45352 4.04033 -5.45885 
225 1 0.714613 4.34859 -6.05536 
3378 2 -0.239699 3.68742 -5.59899 
1763 1 0.254309 3.77781 -4.5485 
3392 2 -0.357026 4.48311 -5.72236 
1296 1 -0.860635 3.78084 -4.63491 
1889 1 1.65347 3.64919 -5.44492 
2598 1 0.866951 3.52587 -5.2918 
1848 1 2.89457 4.25516 -5.482 
946 1 2.23663 3.38675 -4.78571 
244 1 3.71893 4.51832 -5.76404 
2894 2 3.47799 3.40225 -4.86067 
839 1 4.34403 3.821 -5.5665 
2113 1 4.37188 4.80217 -5.12458 
2917 2 5.77537 3.22191 -5.48105 
2927 2 5.7953 4.01771 -5.50078 
81 1 6.94142 4.07844 -5.33947 
2440 1 6.47083 4.06381 -4.57725 
3045 2 -6.71425 4.84166 -5.85302 
1965 1 -7.17305 4.66314 -4.86914 
1939 1 -6.4417 4.8729 -4.65918 
13 1 -7.08581 5.51666 -4.69509 
2546 1 -5.88948 5.53155 -5.0478 
2200 1 -5.60218 5.19942 -5.9246 
2045 1 -5.07162 5.67693 -5.47554 
1691 1 -4.21736 4.70691 -4.96959 
1481 1 -4.09152 5.67338 -5.22291 
223 1 -3.38293 5.36024 -5.87082 
507 1 -3.65344 5.33719 -4.60692 
2865 2 -2.68852 4.74822 -4.86674 
3458 2 -2.71675 5.52577 -4.823 
1665 1 -1.91559 5.18974 -5.58056 
3018 2 -0.592687 5.78936 -5.34878 
3207 2 -0.780798 5.10099 -5.51495 
486 1 0.224354 4.58633 -4.7204 
2392 1 0.686971 5.0713 -5.29578 
350 1 0.0621994 5.43682 -4.60217 
1817 1 1.10974 4.29596 -5.16 
1838 1 1.41495 5.22328 -4.91868 
614 1 2.91002 4.95622 -5.85432 
492 1 2.41275 5.27075 -5.16402 
1677 1 1.98537 4.54491 -4.96525 
82 1 4.27448 5.43914 -5.84084 
2669 1 3.35892 5.50667 -5.86145 
189 1 4.30815 5.76132 -5.0821 
1068 1 4.66871 4.79872 -6.04744 
3257 2 5.53444 4.74723 -5.28483 
2971 2 5.44611 5.68643 -5.11906 
1584 1 6.50048 5.86989 -5.60392 
112 1 6.50381 5.22902 -4.97307 
302 1 6.56065 4.90497 -5.6879 
3147 2 -6.73506 5.67082 -5.75511 
3330 2 -6.78469 6.44733 -5.7175 
1616 1 -5.87761 -7.07309 -5.84185 
278 1 -5.19051 7.11932 -5.0996 
233 1 -5.81696 6.50891 -5.04914 
2318 1 -4.74521 6.37704 -5.16327 
1733 1 -3.33329 -7.13135 -6.02539 
1235 1 -3.79433 6.50621 -5.37436 
1506 1 -2.71617 -7.10708 -5.50601 
1881 1 -2.21605 6.46365 -5.82773 
2988 2 -2.89714 6.26625 -4.85508 
1012 1 -1.72025 6.03042 -5.0417 
1499 1 -1.81153 6.82036 -4.67272 
3455 2 -0.739126 6.58706 -5.30172 
2080 1 0.664269 5.88098 -4.96768 
2524 1 0.269482 7.0894 -5.57092 
401 1 0.332314 6.68948 -4.87981 
2899 2 1.2957 6.41982 -5.97769 
224 1 2.25409 6.2809 -5.29418 
849 1 2.07441 7.17155 -4.99857 
811 1 2.95991 6.83167 -5.48029 
799 1 3.36436 6.19755 -5.47142 
696 1 4.26141 6.3941 -5.70226 
2315 1 3.82721 6.90863 -5.07059 
3290 2 5.03528 7.10734 -4.72235 
2926 2 5.27171 6.39544 -4.95932 
779 1 6.34859 6.82598 -5.49928 
610 1 6.84086 6.09031 -4.91019 
698 1 -6.68324 -6.27761 -4.24237 
2571 1 7.01759 -6.03729 -3.7382 
355 1 -6.68477 -6.66326 -3.39965 
3228 2 -5.55035 -6.3927 -3.65318 
3469 2 -5.35668 7.14822 -3.79366 
2283 1 -4.42156 -6.51892 -3.91064 
1864 1 -4.13626 7.07484 -3.63864 
2089 1 -4.39734 -5.92556 -3.20315 
2835 2 -3.3122 -6.72218 -4.22557 
2496 1 -2.46385 -6.55023 -3.48497 
647 1 -0.734082 -6.25439 -3.67924 
772 1 -1.80175 -6.61515 -4.02924 
2626 1 -0.181372 -7.13044 -4.17129 
2038 1 -0.1187 -6.02703 -4.29225 
2632 1 0.991706 -6.29936 -4.48501 
3236 2 0.569377 -6.91905 -3.4728 
635 1 1.80357 6.83649 -4.15524 
2491 1 1.72669 -6.62348 -4.20823 
3303 2 2.75661 -6.46787 -3.88338 
1327 1 1.7441 -6.70698 -3.33405 
2145 1 4.11564 -7.08261 -4.23265 
2469 1 3.71839 -6.31709 -4.45654 
1741 1 3.93137 -6.33134 -3.6625 
2825 2 4.91582 -6.33947 -4.53676 
60 1 5.8947 -7.02142 -4.02412 
451 1 5.73317 -6.07627 -3.68013 
1526 1 4.99376 -6.71471 -3.50889 
2206 1 6.85089 -6.83644 -4.03151 
1320 1 6.16528 -6.35357 -4.35409 
2473 1 -6.74447 -5.32608 -4.20891 
2896 2 -5.8714 -4.97945 -3.37501 
1144 1 -5.23284 -5.71307 -4.57362 
3375 2 -5.96408 -5.71513 -3.44466 
1187 1 -4.64747 -5.63076 -4.04118 
558 1 -5.54825 -4.94184 -4.41048 
1994 1 -4.98112 -4.52129 -4.08565 
2521 1 -4.84838 -5.13993 -3.35372 
3413 2 -3.43958 -5.86728 -4.15274 
3562 2 -3.75073 -5.13726 -4.15168 
2350 1 -2.41615 -5.40777 -3.70789 
2102 1 -2.62239 -4.96857 -4.43435 
2228 1 -1.44244 -5.61748 -3.71192 
1285 1 -1.86178 -4.75747 -3.41375 
127 1 -0.616296 -5.35513 -3.91934 
1747 1 0.766407 -5.55729 -4.08064 
798 1 1.67432 -5.6953 -4.38283 
1799 1 1.56868 -5.84995 -3.51241 
1683 1 1.06891 -4.90735 -3.80627 
2918 2 2.71973 -5.67456 -3.89508 
3379 2 2.73543 -4.98883 -3.57706 
984 1 3.71266 -5.21196 -4.05917 
281 1 3.94882 -5.55282 -3.30142 
1575 1 4.34032 -4.87926 -3.09766 
1493 1 5.6212 -5.07231 -4.74819 
3244 2 4.6523 -4.73208 -4.27438 
98 1 5.69998 -5.27852 -3.8582 
3340 2 4.58236 -5.60801 -4.49272 
538 1 4.88235 -5.7216 -3.26634 
316 1 6.97796 -4.86719 -3.64806 
893 1 6.40937 -5.55921 -4.01945 
1182 1 -6.7174 -4.43517 -3.92894 
844 1 -6.99255 -3.4705 -3.80113 
1551 1 -5.93098 -4.13686 -4.31824 
1299 1 -5.01473 -3.79552 -3.46589 
3536 2 -3.86134 -4.27412 -4.04914 
3376 2 -3.94933 -3.58891 -3.70617 
1028 1 -2.0872 -3.81653 -3.24194 
1431 1 -2.66642 -4.3177 -3.91776 
1163 1 -2.74256 -3.98039 -4.84877 
111 1 -2.73376 -3.43835 -4.07613 
3285 2 -1.44232 -4.6234 -4.43189 
842 1 -0.776979 -4.6505 -3.69014 
2916 2 -1.56809 -3.75264 -4.29561 
1582 1 -0.363196 -4.25961 -4.52234 
2238 1 0.148755 -4.59364 -4.09039 
15 1 0.546119 -3.70606 -3.81209 
370 1 -0.434801 -3.58593 -3.89982 
2558 1 1.57792 -3.86457 -4.27136 
247 1 1.153 -4.13525 -3.37591 
3230 2 2.41252 -4.21609 -3.45861 
3015 2 2.09021 -3.62076 -3.05689 
1215 1 3.11669 -4.04513 -4.4695 
1160 1 3.66547 -4.27511 -3.84668 
3353 2 4.33737 -3.34244 -4.13383 
1653 1 3.16144 -3.56545 -3.68592 
72 1 5.67309 -4.0761 -4.29733 
2857 2 4.60539 -4.02909 -4.16186 
655 1 6.09079 -4.53413 -3.71956 
335 1 6.69627 -3.86203 -3.25437 
3173 2 6.6494 -3.49689 -4.4482 
753 1 6.00304 -3.38614 -3.51277 
1078 1 -6.79816 -2.58988 -4.72379 
1325 1 -7.0286 -2.62593 -3.81354 
831 1 -6.16477 -2.44375 -4.0652 
1446 1 -4.74499 -1.92362 -4.70891 
1835 1 -4.96217 -2.88894 -4.31743 
2674 1 -5.6303 -3.25942 -4.00037 
1392 1 -3.71718 -2.35068 -4.55141 
3083 2 -3.95995 -2.86357 -3.71064 
3229 2 -4.21812 -2.00815 -3.32323 
2400 1 -2.94721 -2.71763 -3.82241 
2766 2 -2.05115 -2.24013 -4.01292 
1739 1 -2.72857 -2.35522 -2.98759 
3198 2 -1.77869 -3.00042 -4.32928 
954 1 -1.34303 -2.21537 -3.22108 
2439 1 -0.733971 -2.66881 -3.74954 
1239 1 0.120159 -2.83822 -3.6125 
566 1 1.24354 -3.04421 -3.95034 
1644 1 0.865878 -2.17375 -3.8808 
3320 2 2.03264 -2.8825 -3.29155 
27 1 2.96041 -2.9904 -4.28656 
1648 1 3.38608 -2.33851 -4.75222 
1237 1 2.05563 -2.653 -4.22813 
891 1 3.01244 -2.67511 -3.35921 
3134 2 4.04186 -2.60627 -3.83071 
1961 1 5.48832 -3.20185 -4.3634 
2299 1 5.336 -2.32978 -4.05539 
2858 2 6.5611 -2.72289 -4.48099 
1428 1 5.92859 -2.41964 -3.31536 
3116 2 6.26987 -1.87562 -4.30363 
2126 1 -6.8781 -1.63727 -3.90414 
2054 1 -6.54799 -0.792909 -3.74095 
1316 1 -6.09206 -1.54702 -3.69005 
56 1 -5.38588 -1.18646 -4.13979 
2132 1 -5.25301 -2.15381 -4.06083 
2278 1 -3.43315 -0.964551 -4.24174 
500 1 -4.08377 -1.45574 -4.45603 
2302 1 -3.24681 -1.77837 -3.59621 
2748 2 -2.22118 -1.49016 -3.95608 
1127 1 -1.14206 -1.15064 -3.99952 
969 1 -0.875961 -1.9383 -4.26262 
3585 2 -0.26901 -0.824463 -4.54653 
2540 1 -0.354044 -1.94577 -3.51732 
1491 1 -0.425459 -0.791454 -3.53757 
2411 1 1.80875 -1.60053 -4.02249 
1971 1 0.995083 -1.13441 -4.06344 
665 1 2.76253 -2.04613 -4.09894 
876 1 2.49937 -0.908633 -3.85379 
941 1 3.09953 -1.24061 -4.44497 
2914 2 3.79993 -1.65862 -3.62969 
3483 2 3.81021 -0.915697 -3.53842 
1788 1 4.83782 -1.64529 -4.06753 
1282 1 6.84158 -0.784507 -3.35794 
960 1 6.80177 -1.78967 -3.49883 
423 1 7.14344 -0.826534 -4.24637 
2856 2 5.96473 -1.17967 -4.02917 
44 1 -6.73763 0.0237291 -3.62901 
493 1 -5.92517 0.177363 -3.3813 
1793 1 -5.2442 0.514372 -4.01494 
1781 1 -5.49354 -0.240491 -4.09227 
1910 1 -4.59626 -0.40357 -4.22993 
395 1 -3.2966 0.432713 -4.37795 
697 1 -3.74074 -0.170869 -3.83102 
412 1 -4.4512 0.587074 -4.10591 
2465 1 -3.0079 -0.318148 -4.82854 
2789 2 -2.50702 -0.775198 -3.9142 
3490 2 -2.4937 -0.0377791 -3.5387 
913 1 -1.54169 -0.373523 -3.94268 
857 1 -1.4364 0.543737 -3.73195 
3500 2 -0.244592 0.0168479 -4.44515 
3555 2 -0.330009 0.579623 -3.98867 
1119 1 0.568154 0.196504 -3.32372 
1432 1 0.720312 0.381625 -4.64622 
2237 1 0.437903 -0.581881 -3.60277 
2187 1 1.20773 -0.24287 -3.91816 
2135 1 1.76748 0.618171 -3.82268 
130 1 3.0672 -0.149257 -4.14853 
2712 1 2.27346 -0.0775754 -3.61709 
3305 2 3.64253 -0.120568 -3.31925 
504 1 3.87759 0.131507 -4.46059 
1340 1 4.93946 -0.82349 -3.91525 
873 1 4.67322 0.152996 -3.75414 
2902 2 6.00585 -0.393947 -4.00797 
2819 2 5.59336 0.611811 -3.82048 
1514 1 6.86339 0.152351 -3.8841 
2541 1 -6.95745 1.05295 -3.42764 
3263 2 -6.53617 0.905192 -4.38702 
3260 2 -6.77091 1.52919 -4.43058 
918 1 -5.74113 0.986463 -3.53931 
1913 1 -5.45067 1.72531 -4.12459 
2448 1 -4.63264 1.36977 -3.87489 
2436 1 -3.50466 1.18026 -4.30451 
2077 1 -3.98151 1.52173 -3.48821 
1815 1 -3.70629 0.59293 -3.47163 
1894 1 -2.76647 1.81588 -4.65976 
1543 1 -1.79238 0.891548 -4.4767 
3588 2 -2.67121 0.825836 -3.50275 
1198 1 -1.47175 1.30489 -3.60031 
2950 2 -0.45339 1.30693 -3.93342 
603 1 0.599959 1.30692 -4.43413 
2575 1 1.48666 1.46659 -3.67779 
1375 1 0.984222 0.700844 -3.84106 
2637 1 2.61434 0.696058 -3.99926 
47 1 2.49422 1.58992 -3.79711 
482 1 3.59566 0.992508 -4.31905 
613 1 4.27663 0.883217 -3.85402 
167 1 3.42747 1.95017 -3.89613 
3209 2 5.46085 1.33725 -3.66622 
806 1 6.44988 1.7767 -4.73205 
723 1 6.59857 1.84778 -3.90292 
253 1 6.70776 0.987885 -3.6659 
3033 2 -6.71473 2.31863 -4.20304 
3021 2 7.18309 2.86711 -4.17631 
896 1 -4.53974 2.35972 -3.55256 
407 1 -5.18012 3.16161 -3.69774 
1899 1 -5.67744 2.43456 -3.86831 
1512 1 -3.77922 2.03439 -4.01518 
2177 1 -3.89699 2.9038 -3.91921 
1880 1 -2.83812 2.72491 -4.33511 
3372 2 -2.8086 2.267 -3.23266 
2647 1 -2.10138 3.21365 -3.49205 
330 1 -1.87593 1.81838 -4.25581 
1531 1 -1.87614 2.32073 -3.47479 
3196 2 -0.630206 2.13203 -3.87164 
2860 2 -0.884872 2.82714 -3.75906 
1091 1 -1.92862 2.78705 -4.23445 
620 1 0.154645 3.09815 -4.15312 
14 1 0.52199 2.29677 -4.20452 
1098 1 0.455534 2.92155 -3.40692 
3063 2 1.46739 2.31621 -4.58591 
3479 2 1.33793 2.93809 -4.36271 
1562 1 0.662905 1.76864 -3.7068 
268 1 2.11753 2.38518 -3.42192 
1466 1 2.68052 3.22926 -3.94251 
1398 1 4.50555 1.98881 -4.32383 
1574 1 3.33746 2.75339 -3.7976 
1402 1 3.59841 3.56343 -3.55594 