ITEM: TIMESTEP
40400
ITEM: NUMBER OF ATOMS
3594
ITEM: BOX BOUNDS pp pp pp
-7.1978895246875814e+00 7.1978895246875814e+00
-7.1978895246875814e+00 7.1978895246875814e+00
-7.1978895246875814e+00 7.1978895246875814e+00
ITEM: ATOMS id type x y z 
639 1 -7.08191 -5.79428 -6.28193 
2582 1 7.02454 -6.79476 -6.54545 
392 1 -4.39977 -6.5032 -6.98534 
3520 2 -5.07122 -6.43965 -5.98496 
1273 1 -6.44265 -6.69342 -6.58021 
2702 1 -3.65902 -7.04078 7.11231 
3574 2 -2.73382 -6.56891 -6.77668 
2083 1 -1.92861 -6.03383 -6.61394 
2626 1 -1.15959 -5.64752 -6.04432 
623 1 -1.61686 -6.87202 -7.03498 
2368 1 -0.102998 -5.82021 -6.02988 
3368 2 -0.523486 -6.54691 7.08683 
2630 1 -1.20371 -6.50535 -6.40152 
2599 1 1.3918 -6.28903 -6.8301 
2024 1 1.38242 -7.06583 -6.89255 
2627 1 2.21659 7.1323 -6.88855 
3442 2 3.02157 -5.9247 -6.08952 
1385 1 2.11953 -6.67489 -6.22822 
3587 2 3.37219 -6.53231 -6.23554 
1530 1 3.92624 -6.04018 7.19413 
924 1 4.3242 -6.35837 -5.83731 
932 1 4.42168 -6.48358 -6.66577 
3208 2 5.40508 -6.07345 -6.95953 
2787 2 5.41339 -6.88669 -6.91821 
1985 1 5.16195 -6.58723 -5.88945 
916 1 6.07024 -6.28021 -5.92076 
1697 1 6.09683 -7.10852 -6.06288 
2500 1 6.57117 -5.947 -6.54526 
2706 1 -5.88745 -5.89003 -6.7219 
3029 2 -6.97956 -4.68552 7.10513 
2727 1 6.4457 -5.18627 -6.60513 
1654 1 -5.65774 -5.25975 7.06545 
2106 1 -5.92712 -5.21544 6.24686 
2459 1 -3.97895 -5.37105 7.15675 
2516 1 -4.18048 -5.88171 -6.36986 
239 1 -4.97016 -5.82632 -7.05934 
2981 2 -3.07325 -5.83356 -6.49911 
3061 2 -3.12331 -5.07526 -6.62871 
2397 1 -2.76981 -4.62821 6.88329 
3484 2 -0.895652 -4.99166 -6.74794 
2439 1 -2.01083 -4.37853 -6.35552 
3019 2 -0.683683 -5.79355 -7.10635 
890 1 -2.05825 -5.31212 -7.06524 
2453 1 0.225431 -5.13641 -6.32122 
1127 1 -0.676999 -4.70405 -5.80131 
2289 1 0.0747265 -4.68906 -7.09447 
632 1 1.17371 -5.16085 -6.40933 
774 1 1.82066 -5.79666 -6.33884 
1836 1 2.36119 -6.38427 -6.96527 
2957 2 2.89044 -5.10494 -6.09191 
1587 1 1.71551 -4.50042 -6.47577 
498 1 3.54037 -5.15365 7.16947 
362 1 4.15802 -5.64431 -6.35818 
2812 2 5.17631 -5.32997 -6.76602 
274 1 6.00189 -4.68941 7.10939 
153 1 6.15966 -4.54646 -6.01575 
2015 1 5.80858 -5.38495 -5.77368 
335 1 -5.8914 -4.78749 -6.61303 
2535 1 -6.50331 -4.12841 -6.36189 
2022 1 -5.87504 -4.3018 7.02334 
79 1 -6.23215 -3.61431 -6.96909 
1020 1 -4.97411 -4.87473 -6.75522 
1640 1 -5.34841 -4.02107 -6.60318 
1477 1 -4.34142 -4.10121 -5.89423 
2321 1 -4.24563 -4.97487 -6.51179 
2869 2 -3.06246 -3.72045 -5.90448 
2549 1 -2.23862 -3.62044 -6.76934 
3041 2 -3.08118 -4.45592 -6.19165 
2808 2 -1.01993 -4.39206 -7.06468 
3332 2 -0.848205 -3.71143 -6.64624 
1333 1 0.19223 -3.79956 -7.03637 
2631 1 -0.10202 -4.24086 -6.03376 
1050 1 0.605405 -4.37986 -6.43798 
250 1 0.986871 -3.56912 -6.18423 
541 1 1.92197 -3.5364 -6.42986 
2709 1 2.35893 -4.12913 -6.99552 
329 1 3.27098 -4.01317 -6.8575 
2050 1 2.65387 -3.17339 -6.90639 
2256 1 4.00643 -4.7287 -6.42677 
190 1 3.9536 -4.18313 -5.78169 
309 1 3.71663 -3.34942 -6.50813 
3212 2 5.24354 -4.5545 -6.59331 
3266 2 5.01924 -3.80793 -6.48925 
2975 2 7.13998 -4.04036 7.1034 
1597 1 6.30927 -3.4764 -5.79834 
2211 1 6.24463 -3.95452 -6.73618 
1445 1 -6.64476 -3.45579 -5.80915 
88 1 -5.89766 -3.16638 -6.30046 
2661 1 -4.92857 -3.19633 -6.13326 
477 1 -4.85664 -2.39025 -5.56866 
1835 1 -4.24295 -3.23513 -6.59064 
911 1 -3.39927 -3.10346 -6.99719 
18 1 -4.5299 -2.18638 -6.57225 
2057 1 -2.43106 -2.85863 -6.99221 
743 1 -3.28226 -2.30997 -6.84503 
1474 1 -1.94524 -1.95977 7.09565 
2262 1 -2.55562 -2.45973 -6.04824 
913 1 -2.81778 -1.83349 -5.55917 
3234 2 -1.18793 -2.99926 -6.59431 
607 1 0.0799349 -3.48684 -6.18541 
2042 1 -0.380607 -2.17862 -6.6725 
502 1 0.565958 -2.62497 -6.12892 
3347 2 1.01717 -2.7188 -7.1738 
2804 2 0.849748 -1.90901 -6.95848 
483 1 2.08026 -2.89863 7.00954 
1418 1 3.17571 -2.33001 -6.65372 
2628 1 1.97332 -2.68098 -6.39374 
850 1 3.76791 -2.44868 -5.78709 
1981 1 4.11944 -2.56366 -6.75397 
2767 2 4.97767 -3.21243 -6.13368 
3550 2 4.95163 -2.32887 -5.92383 
2122 1 5.85019 -2.23969 -6.56562 
3126 2 7.01747 -3.30306 -6.9758 
3087 2 7.11632 -2.56221 -6.60062 
1373 1 6.04686 -3.01265 -6.56783 
2114 1 -6.50111 -1.51608 -6.1491 
2360 1 -6.61707 -0.597057 -5.95712 
3360 2 -5.4798 -1.1831 -7.09811 
56 1 -5.67403 -0.969579 -5.97577 
41 1 -5.44941 -2.08773 -6.19531 
1928 1 -4.83074 -1.44026 -6.24234 
1112 1 -3.90381 -1.56093 -6.6662 
323 1 -2.59928 -2.01378 -6.75354 
3105 2 -1.54305 -2.34561 -6.42816 
3200 2 -1.59362 -1.54297 -6.24219 
2326 1 -1.46321 -0.891362 7.06979 
3088 2 0.532443 -0.516984 -6.63058 
2013 1 -0.728384 -1.39612 -7.17139 
1976 1 -0.488457 -0.456314 6.97584 
3151 2 0.597125 -1.23363 -6.75562 
919 1 1.77894 -1.72282 -6.44838 
2708 1 1.93364 -0.890773 -6.83037 
1859 1 2.58135 -1.65277 -6.35992 
303 1 3.71374 -1.72972 -6.59046 
388 1 3.59571 -0.867608 -6.29974 
1648 1 4.55411 -1.87976 -7.12568 
42 1 5.33522 -1.69579 -6.97662 
2510 1 5.55824 -0.837166 -6.40053 
2072 1 4.91259 -0.775688 -6.82714 
2180 1 6.02031 -0.947776 6.9662 
2840 2 7.01405 -1.78329 -6.67237 
2797 2 6.57342 -1.22167 -6.67233 
90 1 -6.77499 -0.518251 -6.90124 
519 1 -6.92015 0.252221 -6.73192 
1698 1 6.73539 -0.20325 7.00671 
3097 2 -5.5681 -0.51078 -6.95435 
3127 2 -5.69489 0.245575 -6.83477 
2699 1 -4.13892 -0.645407 -6.83478 
1001 1 -3.58696 -0.334877 -6.32429 
415 1 -4.56235 0.259021 -6.78999 
433 1 -3.79819 0.549816 -6.35956 
964 1 -2.81302 0.587444 -6.38183 
28 1 -2.63994 -0.371923 -6.57969 
1745 1 -0.673554 -0.261556 -6.40402 
2081 1 -2.14218 -0.244775 7.0602 
1661 1 -1.21238 -0.0428771 -6.91304 
3311 2 0.414596 0.185387 -6.3766 
2928 2 0.274673 0.932588 -6.30502 
1695 1 1.45004 0.171193 -6.64155 
2730 1 2.08255 -0.125535 -6.01431 
2150 1 2.84628 0.386732 -5.86043 
3195 2 2.83594 -0.312057 -7.14635 
453 1 4.12867 -0.913108 -6.98297 
1085 1 3.68816 -0.0149895 -6.2884 
970 1 4.09265 0.95192 -6.58817 
1362 1 4.76783 0.323352 -6.47801 
556 1 5.79324 -0.320683 -5.58692 
2380 1 5.40009 -0.051753 -6.6654 
2276 1 5.23071 0.446932 -5.64646 
3135 2 6.64923 -0.451946 -6.2562 
3038 2 6.48467 0.291588 -6.06352 
305 1 6.49654 0.737921 -7.11065 
3140 2 -6.1301 1.81494 -6.60817 
1185 1 7.19271 1.65397 -6.82844 
3007 2 -5.89845 1.01047 -6.70593 
408 1 -4.56915 0.0154577 -5.87783 
1335 1 -4.78699 1.12115 -6.91117 
2560 1 -5.00746 0.967679 -5.94218 
1336 1 -4.22774 1.32822 -6.18735 
3148 2 -3.76299 1.56654 7.16682 
1446 1 -3.3008 2.31924 -5.90513 
83 1 -3.2088 1.47363 -6.15866 
343 1 -1.98495 0.470613 -6.84421 
1772 1 -2.39149 1.48023 -6.60584 
1370 1 -0.971485 2.53992 -6.69164 
1265 1 -0.938948 0.680785 -6.66156 
287 1 -1.60165 1.28058 -6.55032 
3078 2 0.174956 1.60049 -6.07214 
1525 1 -0.710915 1.70947 -6.93259 
941 1 1.68518 0.692153 -5.98375 
1817 1 1.11229 2.17047 -6.40637 
2960 2 2.5678 0.367097 -7.08323 
3459 2 2.24939 1.25945 -7.02442 
1876 1 3.16996 1.21683 -6.25895 
312 1 3.28413 2.16739 -6.09517 
1176 1 2.75063 1.90257 -5.45743 
1034 1 3.49955 1.59242 -6.92205 
366 1 4.90959 1.41312 -6.3741 
2068 1 4.25609 2.05057 -6.47666 
1414 1 5.59637 0.892581 -6.87626 
404 1 5.60891 1.72602 -7.16574 
2151 1 6.45509 1.55463 -6.99179 
3465 2 -6.26842 2.60588 -6.45391 
2736 2 -6.05217 3.26622 -6.23422 
625 1 -7.04769 2.41255 7.13069 
1232 1 -5.1535 1.83752 -6.20724 
822 1 -5.09971 2.87435 -6.68234 
1353 1 -4.2496 2.09425 -5.89 
2783 2 -3.98973 3.08029 -6.90624 
3093 2 -3.90775 2.31421 -6.96949 
2275 1 -2.85827 2.46594 -6.62403 
2576 1 -3.23216 3.34681 -6.12206 
883 1 -1.6911 2.23894 -6.42236 
920 1 -1.25098 3.57934 -6.57622 
757 1 -0.627083 2.62117 7.04794 
3444 2 -0.026128 2.27721 -6.19052 
2813 2 -0.124974 3.01669 -5.97969 
2463 1 0.927653 2.99966 -6.34422 
3417 2 2.21572 2.87963 -6.35646 
2080 1 1.38661 2.86591 7.12368 
3393 2 2.14649 2.0369 -6.82981 
1113 1 3.48469 3.8581 -5.96263 
1218 1 3.32091 2.39529 -7.06244 
1068 1 3.74556 3.01153 -6.13681 
805 1 4.69817 2.70708 -6.34159 
2765 2 4.31657 3.33275 7.1887 
795 1 5.30031 2.17291 -6.56415 
284 1 5.42147 2.88101 -7.02962 
115 1 6.84531 2.47313 -6.5782 
2386 1 6.18376 2.5612 -7.10088 
2597 1 6.09034 3.32568 -6.80818 
2685 1 6.71553 3.42146 -6.34484 
3238 2 -6.36469 3.98986 -6.0624 
2519 1 -6.39702 3.36553 6.96309 
3045 2 -6.49248 4.85551 -5.94703 
536 1 -5.44523 3.46561 7.19567 
829 1 -6.38859 4.29074 7.10983 
443 1 -5.13238 3.7664 -6.36287 
3408 2 -4.0521 3.75616 -6.97908 
3411 2 -4.21819 4.37533 -6.62962 
912 1 -3.85417 3.71622 -5.59104 
223 1 -3.3902 4.52944 -5.88789 
1517 1 -2.23993 2.98166 -6.40145 
353 1 -1.98284 3.95921 -6.31768 
1344 1 -2.96635 4.03992 -6.44383 
175 1 -1.35213 4.48273 -6.41151 
1933 1 -0.495891 3.38276 -7.13407 
2285 1 0.462655 3.70945 -6.82255 
1773 1 -0.542381 4.23384 -6.73966 
324 1 0.0916662 4.934 -6.73134 
3478 2 1.86972 3.56133 -6.32904 
430 1 0.874058 5.28837 -7.17393 
703 1 2.97829 4.1468 -6.80109 
591 1 3.1156 3.24651 -6.7397 
3551 2 4.22887 4.02184 -6.93065 
16 1 3.4057 4.69773 -5.83695 
2530 1 5.00517 3.41856 -6.17159 
760 1 6.69607 4.40725 -6.35996 
2568 1 5.16252 4.83261 -6.95566 
213 1 -7.07844 4.02088 -6.83195 
297 1 -6.73256 5.73473 -6.88608 
3147 2 -6.85427 5.41311 -5.68063 
317 1 -6.00658 4.97327 -6.89793 
2045 1 -5.43493 4.54477 -6.76061 
3463 2 -4.60019 5.81845 -6.32804 
1872 1 -5.486 5.20508 -6.05798 
3471 2 -4.39058 5.20507 -6.63052 
2446 1 -3.44804 6.12232 -6.41023 
3454 2 -2.28625 5.54223 -7.01904 
341 1 -2.32563 4.84809 -6.08472 
1881 1 -1.49331 5.2568 -6.22643 
2524 1 -0.717748 5.20899 -6.66777 
225 1 -1.17445 6.13625 -6.54414 
1346 1 -1.75184 6.18739 -5.78658 
1767 1 -0.290897 5.8622 -6.3792 
1639 1 -0.0603799 6.67279 -5.9897 
3466 2 1.75484 4.46838 -6.21226 
1889 1 0.550433 5.93415 -6.70242 
3138 2 1.58166 5.26772 -6.08286 
839 1 2.64435 5.50246 -7.18953 
96 1 2.7195 4.96729 -6.4447 
2492 1 1.73299 5.44306 -7.15076 
3223 2 4.03199 4.72857 -6.75888 
3215 2 3.75377 5.48126 -6.84483 
2711 1 4.92797 4.25885 -6.13207 
2678 1 4.74361 5.07719 -5.9665 
2142 1 5.84473 4.89674 -6.24494 
2594 1 -6.95721 4.96323 -6.94862 
1410 1 6.85107 5.80481 -6.68178 
1667 1 6.50057 5.27401 -6.25105 
1965 1 5.5723 5.67099 -6.21066 
1616 1 7.01608 6.81436 -6.86341 
558 1 -6.62847 6.56716 -6.59155 
3477 2 -4.96397 -7.11989 -6.1418 
491 1 -5.82694 5.85749 -6.69018 
3150 2 -4.74941 6.5223 -6.27277 
2033 1 -5.81227 6.22077 -5.88913 
1490 1 -3.2859 6.66213 6.78943 
1235 1 -3.76015 6.77499 -6.43906 
2944 2 -2.70128 7.01665 -6.85149 
3268 2 -2.38279 6.28783 -6.82716 
1747 1 -1.61444 7.00623 -6.28802 
1356 1 -0.711093 6.91662 -6.4083 
245 1 -0.538509 -6.615 -5.87809 
1521 1 0.15054 -6.68721 -6.24954 
586 1 0.356506 6.1413 -5.22507 
2675 1 0.395148 6.86547 -6.69704 
215 1 1.57656 6.21846 -7.15921 
2899 2 1.23871 6.76784 -5.95823 
2831 2 1.3908 6.0818 -6.08269 
2048 1 2.40604 6.88227 -6.15355 
255 1 2.55509 5.94209 -6.23098 
3569 2 3.4059 7.0285 -6.45281 
2790 2 3.45968 6.24259 -6.63349 
1311 1 4.77918 7.04494 -6.17501 
302 1 4.66924 6.10083 -6.29721 
522 1 6.43556 6.49293 -6.39638 
13 1 5.49821 6.63154 -5.92689 
1345 1 -6.19798 -6.35741 -5.82171 
695 1 -6.20093 -5.75233 -5.31136 
698 1 -5.64543 -6.88635 -5.19541 
2462 1 -4.80373 -6.98138 -4.90618 
833 1 -3.17183 7.13352 -5.87373 
1149 1 -4.05155 -7.00365 -5.39434 
2002 1 -3.86954 -6.77205 -6.2744 
1984 1 -2.16752 -5.75085 -5.85155 
1567 1 -2.01201 -6.6226 -6.01483 
1643 1 -2.8162 -6.47871 -5.6483 
3322 2 -1.41001 -6.08282 -4.93618 
3594 2 -1.31283 -6.83327 -5.15827 
1689 1 -0.263586 -6.13659 -5.09033 
1107 1 0.193325 -6.75312 -4.7108 
486 1 -0.0915325 -5.50107 -4.5718 
2978 2 1.10893 -6.79458 -5.74455 
3128 2 0.879524 -6.16831 -5.41071 
2096 1 1.73077 -6.40876 -4.78987 
2537 1 1.97589 -5.88065 -5.54124 
1211 1 2.25464 -6.93972 -5.32055 
811 1 2.56624 -5.17605 -5.03992 
1442 1 2.64645 -6.0846 -5.0415 
2469 1 3.63765 -6.6491 -5.08104 
2136 1 4.0067 6.60998 -4.61804 
893 1 4.97983 -5.75675 -5.65236 
589 1 5.80073 -6.03648 -5.11461 
3290 2 5.02088 6.94801 -4.85492 
3487 2 7.14478 -6.685 -5.54387 
610 1 6.02187 -7.08171 -5.16159 
2828 2 6.96697 -5.77997 -5.18833 
1263 1 -6.47836 -5.37056 -6.06501 
316 1 -6.58757 -4.67038 -5.51781 
2176 1 -4.63062 -5.3421 -4.76882 
3416 2 -5.19173 -5.73721 -5.84707 
3325 2 -5.43123 -5.06763 -5.55894 
523 1 -4.43208 -4.53522 -4.93719 
1994 1 -5.63646 -6.12661 -4.66382 
959 1 -3.83784 -6.16292 -5.66821 
977 1 -4.22668 -5.06105 -5.71957 
1144 1 -2.86813 -4.91881 -4.62164 
1506 1 -3.52339 -5.43827 -5.38535 
897 1 -2.47692 -4.88416 -5.47245 
786 1 -1.73471 -5.07001 -6.10681 
3480 2 -1.63747 -5.36911 -4.87693 
3285 2 -1.5868 -4.61685 -4.80007 
1931 1 -0.391766 -5.33149 -5.34631 
2826 2 0.711242 -5.23819 -5.39338 
3068 2 0.611908 -4.49082 -5.22824 
2058 1 -0.527923 -4.65261 -4.56855 
19 1 1.40451 -4.60861 -4.19672 
15 1 1.53604 -5.4794 -4.64715 
1538 1 1.77943 -5.0326 -5.67512 
1837 1 1.89654 -4.60188 -4.82441 
2933 2 2.90215 -4.37185 -5.95112 
248 1 3.73461 -5.72286 -5.37898 
1945 1 3.481 -5.04343 -4.08139 
1425 1 3.27001 -5.61545 -4.66849 
1416 1 3.61606 -4.80814 -5.14548 
779 1 4.49008 -5.09868 -5.78798 
2539 1 4.81093 -4.34572 -5.49826 
452 1 5.60643 -5.03409 -5.04434 
3010 2 6.75195 -5.07154 -5.15215 
572 1 7.07097 -4.78068 -6.22548 
1444 1 -6.79053 -3.89173 -5.02356 
2912 2 -5.56972 -4.23528 -5.51362 
2737 2 -5.73844 -3.492 -5.1728 
1140 1 -3.85334 -3.74762 -4.99501 
1979 1 -3.54598 -4.65083 -5.04538 
1671 1 -2.92385 -3.26309 -4.83481 
386 1 -2.36566 -3.96645 -5.29181 
1629 1 -2.37137 -2.7904 -5.27895 
484 1 -2.00537 -3.49003 -6.03298 
842 1 -1.45667 -4.19301 -5.75832 
1087 1 -1.54771 -3.22015 -5.4028 
2105 1 -0.702223 -2.66798 -4.64244 
2263 1 -0.600596 -3.55402 -4.74138 
2768 2 0.445577 -3.77321 -4.89758 
922 1 -0.820002 -3.54741 -5.53991 
2520 1 1.78756 -3.428 -5.1815 
1313 1 1.64503 -4.06943 -5.74148 
840 1 1.44525 -3.58323 -4.4139 
1234 1 3.04477 -4.6378 -4.61063 
3249 2 2.63681 -3.73245 -5.69861 
26 1 4.53171 -3.33572 -5.19776 
2558 1 3.59197 -3.82871 -4.89337 
1322 1 5.57125 -4.06721 -5.39352 
346 1 5.49759 -3.85043 -4.52703 
451 1 5.80668 -4.68651 -4.10914 
2670 1 7.09059 -4.04804 -5.89526 
3173 2 6.61494 -3.58577 -4.59974 
3080 2 6.56017 -4.36178 -4.91722 
2612 1 -6.78211 -3.03027 -4.80983 
2721 1 -6.40865 -2.50192 -5.9468 
2126 1 -6.9103 -2.18329 -5.32551 
2320 1 -4.63255 -3.38113 -5.34115 
2890 2 -5.84132 -2.773 -5.0173 
2480 1 -4.49136 -2.50572 -4.72387 
2974 2 -5.76739 -2.00206 -4.99433 
1285 1 -3.8191 -3.0765 -4.62558 
2844 2 -3.48703 -2.90667 -5.81804 
3543 2 -3.77454 -2.22338 -5.83677 
2302 1 -3.92346 -1.79377 -4.63238 
594 1 -3.14769 -2.34024 -4.87051 
858 1 -1.6251 -2.2851 -5.27703 
2139 1 -0.800201 -2.09269 -5.37368 
3227 2 0.424848 -2.79967 -4.99713 
527 1 -0.423096 -2.78921 -5.77772 
3430 2 0.193659 -2.058 -4.70664 
400 1 0.507699 -1.81494 -5.87293 
628 1 1.35556 -3.01696 -5.73158 
1644 1 1.61055 -2.5386 -4.86123 
3014 2 2.75329 -2.94884 -5.97487 
2830 2 2.65047 -2.81496 -5.31914 
3356 2 2.51527 -2.00997 -5.42764 
1415 1 4.45275 -2.50414 -4.9867 
1215 1 3.50259 -2.99096 -4.67862 
85 1 3.80283 -3.18411 -5.64815 
40 1 3.77536 -2.14921 -5.04965 
2306 1 5.59493 -3.22512 -5.16273 
873 1 5.74113 -2.05391 -5.32639 
304 1 6.25782 -2.56989 -5.66531 
2101 1 7.03907 -2.92769 -5.57664 
3116 2 6.38422 -2.04986 -4.41318 
148 1 -7.00152 -1.37557 -5.43363 
2993 2 -6.0494 -1.36393 -4.8804 
1483 1 6.3228 -1.04557 -5.26777 
2132 1 -7.0355 -1.59285 -4.65179 
874 1 -4.86864 -1.34283 -5.276 
1781 1 -4.86902 -0.499004 -5.20897 
3256 2 -3.81736 -1.37914 -5.65358 
965 1 -2.57483 -1.07547 -5.75993 
2465 1 -2.17501 -1.59016 -5.19154 
2108 1 -2.84535 -0.133886 -5.75555 
460 1 -1.10809 -1.27365 -5.16807 
154 1 -0.340891 -1.72631 -5.98073 
1489 1 -0.578422 -0.590356 -5.59439 
2589 1 -1.82958 -0.76912 -4.91757 
3354 2 -0.0221509 -1.38404 -4.68246 
76 1 0.250908 -1.03978 -5.64755 
2600 1 1.44827 -1.03083 -6.02797 
1897 1 1.45309 -2.17122 -5.85961 
2298 1 1.16124 -1.42778 -5.16126 
296 1 2.84118 -0.889545 -6.11175 
3557 2 2.24416 -1.29351 -5.19904 
656 1 3.44612 -0.924949 -5.31474 
2645 1 3.51256 -1.59545 -5.72146 
2972 2 4.70157 -1.59032 -5.84723 
2995 2 4.63442 -0.862905 -5.76936 
1830 1 4.19866 -1.35276 -4.60275 
734 1 5.07023 -1.36244 -4.3079 
2074 1 6.7828 -1.83136 -5.57525 
1987 1 5.87963 -1.58797 -6.0411 
385 1 -6.45329 0.15503 -6.01279 
2617 1 7.14595 -0.462914 -5.26003 
1927 1 -7.08977 0.404539 -5.29335 
3267 2 -5.96711 -0.563129 -4.80912 
2605 1 -5.58308 -0.170567 -5.8607 
1224 1 -4.50019 -0.683428 -6.12588 
670 1 -5.90004 0.819861 -5.68686 
1953 1 -5.11999 0.429697 -5.0242 
1910 1 -5.47937 1.3541 -5.1365 
3144 2 -3.66365 -0.518053 -5.27047 
2861 2 -3.97356 0.44891 -5.16619 
1635 1 -2.96823 -1.19361 -6.52626 
174 1 -1.86709 0.172581 -4.70918 
596 1 -2.73373 0.205344 -4.72793 
2796 2 -1.54156 -0.792991 -6.2258 
2939 2 -1.74674 -0.243874 -5.79047 
1894 1 -0.783499 0.628468 -5.16997 
2390 1 -0.440427 -1.12531 -6.45661 
2712 1 1.23031 -0.171003 -5.76404 
1971 1 0.0677948 -0.0356135 -5.40436 
308 1 0.86519 0.00281744 -4.63382 
2187 1 0.796069 -0.526515 -5.21174 
3383 2 1.8477 0.181354 -4.95899 
3449 2 2.10386 -0.518 -4.91581 
130 1 3.1227 -0.22956 -5.2788 
1524 1 3.13085 0.577434 -4.81836 
3317 2 4.39631 -0.245788 -5.47965 
1472 1 5.35766 -0.274105 -4.73082 
499 1 5.63052 -1.16756 -5.03752 
1883 1 5.80262 0.647783 -4.94231 
1369 1 6.39999 -0.0235205 -4.96111 
34 1 6.47069 1.18441 -4.79669 
668 1 -6.95779 0.958454 -6.0989 
1207 1 7.17108 1.2849 -5.10921 
1607 1 -7.10092 1.7253 -5.83094 
2037 1 -6.35162 1.51738 -5.42831 
1514 1 -5.70491 2.22312 -5.44711 
3062 2 -4.28349 1.32731 -5.08919 
640 1 -2.27416 1.25434 -4.46723 
1512 1 -3.07782 1.90153 -4.36383 
2466 1 -2.93404 0.719839 -5.47947 
2846 2 -1.73647 0.562106 -5.69713 
3117 2 -2.00333 1.49693 -5.51257 
994 1 -0.6698 0.509104 -5.91859 
159 1 -1.49063 1.65459 -4.61247 
1623 1 -0.830874 1.52949 -5.21948 
603 1 0.0514202 0.74855 -5.11095 
823 1 0.1128 1.67784 -5.06706 
1368 1 1.14252 1.3284 -5.50066 
2673 1 0.934153 0.571741 -5.45178 
3241 2 1.73902 1.53494 -4.711 
3443 2 2.04069 0.849749 -4.68419 
2575 1 1.83 1.83034 -5.76853 
110 1 2.28066 1.2136 -5.93641 
851 1 2.99955 1.19893 -5.24848 
2848 2 4.17747 0.373943 -5.28631 
3364 2 3.93951 1.04821 -5.52677 
1788 1 4.98154 0.968575 -4.67114 
194 1 5.07437 1.41441 -5.41332 
3060 2 6.16898 1.09994 -5.87375 
50 1 5.45303 1.69894 -4.84213 
817 1 -6.53503 2.50628 -5.34675 
2396 1 -5.89671 3.23846 -5.04477 
2578 1 -5.60086 2.51796 -4.53517 
1238 1 -4.93148 2.61049 -5.8898 
3456 2 -4.75928 2.93464 -4.88502 
2318 1 -3.66133 2.77347 -5.3027 
2845 2 -4.5755 2.04589 -4.95554 
803 1 -3.24479 1.54555 -5.30174 
1691 1 -4.23707 3.12385 -5.89044 
2945 2 -2.26729 2.18366 -5.42146 
1255 1 -0.984917 1.53909 -6.1095 
46 1 -1.01282 2.2891 -5.60492 
330 1 -1.47714 2.98509 -5.97347 
673 1 -1.00109 3.11505 -5.21175 
1993 1 0.370876 2.54026 -4.27042 
1098 1 -0.332897 2.36102 -4.92887 
620 1 0.790989 2.12136 -5.39904 
1978 1 1.40714 2.64 -5.57659 
23 1 2.60353 2.69987 -5.21163 
1677 1 2.9212 3.34292 -5.69006 
1066 1 2.0136 3.34425 -5.16228 
1923 1 2.40609 2.90855 -4.5224 
3388 2 4.09896 1.82911 -5.1813 
3433 2 3.87792 2.49851 -5.05531 
3298 2 5.94633 2.48959 -5.8956 
2433 1 4.80737 3.08574 -4.59556 
82 1 4.97746 2.1907 -5.65082 
1092 1 5.4995 2.51744 -4.78231 
723 1 6.82056 2.1058 -5.0541 
1331 1 7.15228 2.79026 -5.84149 
2147 1 6.07193 2.84153 -4.20385 
3414 2 6.1724 1.85385 -5.95511 
131 1 -6.85346 3.34064 -5.20872 
1229 1 -5.82884 4.03467 -4.97538 
1169 1 -6.7912 4.29318 -4.89421 
1845 1 -5.34013 4.5151 -5.82946 
35 1 -5.33566 3.45392 -5.53276 
561 1 -4.55976 4.02853 -5.73404 
3457 2 -4.79498 4.53527 -4.43274 
59 1 -3.51223 3.69813 -4.61532 
2977 2 -2.50971 2.867 -5.24978 
2865 2 -2.58387 3.74324 -5.43201 
686 1 -1.56571 3.76214 -5.31619 
1638 1 -1.65858 3.30544 -4.51214 
448 1 -0.917926 4.07617 -4.72646 
2603 1 -1.61636 4.74153 -5.42945 
3378 2 -0.317414 3.7027 -5.82495 
867 1 0.414326 2.86023 -5.05059 
3392 2 -0.502065 4.39903 -5.47654 
1998 1 0.361884 4.01462 -4.76169 
693 1 0.665136 4.171 -5.93735 
1505 1 0.818385 4.55831 -5.30281 
2542 1 1.0178 3.38541 -5.55596 
371 1 1.48537 4.08459 -5.14635 
899 1 2.61463 4.02883 -5.42671 
2592 1 2.43303 3.75579 -4.48899 
2086 1 4.26036 3.76296 -5.70686 
2483 1 4.37037 4.40392 -5.28253 
2814 2 3.57708 3.87857 -4.71289 
377 1 4.61698 3.1108 -5.47618 
2894 2 3.67883 3.15702 -4.69167 
221 1 4.86926 3.82548 -4.88899 
2917 2 5.90896 3.21645 -5.44235 
2927 2 5.73792 3.94548 -5.55586 
2707 1 6.97676 3.84819 -5.52667 
1684 1 6.4919 3.73361 -4.60469 
1200 1 6.76193 4.69827 -5.31107 
806 1 6.79156 2.87676 -4.82857 
29 1 -5.7245 4.87011 -4.99601 
1899 1 -6.87 5.13358 -4.65884 
2473 1 -5.74903 5.63511 -5.19099 
942 1 -4.76087 5.21805 -5.33127 
587 1 -3.79676 5.72153 -5.5067 
601 1 -3.31705 5.36488 -5.89883 
507 1 -4.02207 4.87686 -5.40861 
1481 1 -4.18624 5.57614 -4.62085 
1391 1 -3.762 6.53874 -5.62298 
3458 2 -2.5655 4.48513 -4.99724 
2988 2 -2.83472 5.18274 -4.59167 
2635 1 -2.3602 5.51624 -5.77033 
1499 1 -2.0516 6.519 -4.89467 
3018 2 -0.732375 6.00395 -5.42227 
1775 1 -1.8194 5.59489 -5.11496 
1924 1 0.40954 5.36973 -5.89809 
3207 2 -0.650704 5.1819 -5.50258 
2208 1 -0.494744 5.26561 -4.26162 
301 1 1.4713 5.17491 -4.93226 
84 1 2.11858 4.75143 -4.68248 
2379 1 2.56749 4.85554 -5.43491 
849 1 2.32108 5.63383 -5.23594 
2762 2 3.28316 4.63705 -4.65533 
1515 1 4.3472 5.7492 -4.54246 
2088 1 4.50165 4.74301 -4.53005 
2305 1 4.04223 5.26969 -5.30442 
3257 2 5.55505 4.52726 -5.13441 
2971 2 5.27059 5.37397 -5.0444 
440 1 6.13337 5.55127 -4.45023 
1341 1 6.38402 5.5323 -5.37249 
3330 2 -6.95423 6.12237 -5.54118 
2747 2 -7.1378 6.84231 -5.51605 
1291 1 -6.14279 7.13057 -5.96041 
1184 1 -6.36861 6.55947 -4.66579 
278 1 -5.6136 6.63941 -5.15755 
1733 1 -5.00202 6.06181 -5.19864 
2248 1 -4.38369 6.55589 -5.0956 
2428 1 -4.28149 6.47141 -4.35062 
197 1 -2.80987 6.16176 -5.79351 
3265 2 -3.04456 6.02948 -4.68459 
2835 2 -3.17847 6.84029 -4.5209 
579 1 -1.84507 6.97493 -4.15727 
1308 1 -2.34994 6.96595 -5.53681 
3455 2 -0.907951 6.86563 -5.18948 
1093 1 0.00646864 7.19045 -5.41336 
949 1 1.17891 -7.04276 -4.51559 
1848 1 0.467174 5.40203 -5.03417 
2429 1 0.677699 6.76106 -4.89902 
1878 1 1.49116 6.063 -4.99193 
696 1 2.44208 6.44593 -5.50679 
1935 1 1.85077 6.85142 -4.82346 
798 1 3.06621 -7.11037 -5.2623 
1882 1 4.23144 7.11785 -5.50832 
244 1 3.40292 6.45434 -5.37687 
189 1 4.1494 6.12384 -5.51177 
709 1 3.21902 5.66174 -5.65202 
2926 2 5.1868 6.22715 -5.0312 
1399 1 6.18392 6.39706 -5.35336 
2533 1 -6.31579 -7.00521 -4.91411 
58 1 -6.81466 6.74834 -3.86387 
3228 2 -5.77408 -6.94886 -3.67734 
3375 2 -5.72837 -6.17195 -3.51767 
1406 1 -4.5789 -6.14485 -5.01412 
3413 2 -3.34605 -6.80837 -4.58403 
1551 1 -4.16932 -6.51852 -3.5234 
1435 1 -2.26189 -6.69596 -4.91205 
427 1 -2.741 -5.77992 -5.09644 
1609 1 -3.02283 -6.72862 -3.45264 
2102 1 -2.92142 -5.90821 -3.37396 
2496 1 -2.35142 -6.61538 -3.9984 
1585 1 -1.56386 -6.36639 -3.91736 
401 1 -0.516017 -6.58349 -4.19419 
2491 1 1.02324 -5.30223 -4.00414 
3236 2 0.324982 -6.74059 -3.49503 
2969 2 0.198019 -5.98116 -3.28475 
224 1 0.633655 -6.10034 -4.4169 
2238 1 1.37693 -6.37271 -3.95079 
2918 2 2.56879 -6.55131 -3.97861 
2566 1 3.58244 -6.25088 -4.15175 
2703 1 4.03819 -6.97378 -4.19403 
2315 1 3.46168 -6.67781 -3.29318 
1871 1 5.29637 -6.30042 -3.84319 
2825 2 4.91764 -6.63055 -4.75535 
997 1 5.22913 -5.33381 -3.52679 
1584 1 4.8967 -5.82065 -2.8624 
1013 1 -6.6607 -6.62119 -4.18895 
98 1 6.24905 -6.38649 -4.4175 
1851 1 -6.69686 -4.8835 -4.57789 
844 1 -6.12948 -4.30399 -4.38264 
2571 1 -6.61699 -5.80533 -4.50233 
2896 2 -6.07753 -5.34639 -3.6232 
3286 2 -6.14824 -4.70938 -3.19364 
472 1 -4.86008 -6.30484 -4.03837 
1182 1 -5.66017 -5.24135 -4.60657 
2674 1 -5.05674 -5.44426 -3.91943 
3562 2 -3.63904 -6.05776 -4.40478 
3536 2 -3.87872 -5.34438 -4.10162 
127 1 -2.93238 -5.0066 -3.64242 
1086 1 -2.57766 -4.28987 -3.9314 
2038 1 -1.87437 -5.47661 -3.72231 
202 1 -2.53251 -5.75026 -4.27828 
2052 1 -0.733905 -5.72924 -4.07912 
1799 1 0.404645 -4.77565 -4.20111 
2632 1 0.847399 -5.19974 -2.44364 
1130 1 1.44086 -5.62915 -3.19923 
1160 1 1.25762 -4.83229 -3.23127 
3379 2 2.3724 -5.61044 -3.90264 
3230 2 2.36446 -4.69239 -3.79764 
1019 1 4.19851 -6.2662 -3.58826 
3244 2 4.5279 -4.78637 -4.47828 
701 1 3.3701 -4.60692 -3.20033 
1526 1 3.49353 -5.59983 -3.40888 
3340 2 4.60516 -5.78438 -4.5753 
1364 1 6.51698 -5.38568 -4.02351 
938 1 4.8616 -4.7466 -2.52742 
72 1 5.77487 -5.50327 -4.32274 
2507 1 7.16312 -4.95772 -3.91213 
655 1 7.05717 -6.02799 -4.0555 
1449 1 -5.60404 -3.60701 -4.0576 
2351 1 -6.50257 -3.37369 -4.10466 
3100 2 -6.27215 -3.94208 -3.06836 
1361 1 -5.19501 -4.42457 -4.34082 
642 1 -4.93421 -3.837 -3.49399 
3376 2 -3.89075 -4.41944 -3.97339 
3083 2 -3.95291 -3.64263 -3.72985 
2044 1 -3.07981 -3.99329 -4.61147 
520 1 -2.60728 -3.70287 -3.30608 
1846 1 -1.76048 -4.60213 -3.57688 
3198 2 -1.76553 -3.8161 -4.47631 
180 1 -0.81657 -3.79178 -3.7016 
370 1 -1.64108 -3.75628 -3.31576 
1380 1 -0.922387 -4.72465 -3.72705 
1028 1 -0.149389 -4.02216 -4.15438 
1552 1 0.980164 -3.57839 -3.14492 
1611 1 0.949755 -4.04427 -3.80433 
3015 2 2.07985 -3.98288 -3.44286 
1967 1 2.46577 -3.86188 -4.60449 
1575 1 3.43332 -4.15227 -4.02865 
2857 2 4.42473 -4.01371 -4.07687 
3353 2 4.40521 -3.15013 -3.97187 
1595 1 5.63841 -3.75948 -3.55744 
1226 1 5.16338 -4.51977 -3.40289 
2659 1 6.45201 -4.26138 -3.63567 
1031 1 -7.05674 -4.01782 -3.92366 
1006 1 -5.98325 -2.59323 -3.92385 
1316 1 -4.63101 -1.57495 -4.45072 
1392 1 -4.6522 -3.80977 -4.54591 
2157 1 -5.37861 -1.90833 -3.88603 
318 1 -5.00474 -2.77878 -4.17058 
3229 2 -4.0764 -2.87119 -3.61248 
3447 2 -4.18892 -2.00538 -3.49031 
228 1 -2.86386 -3.46336 -4.03425 
1023 1 -3.14079 -2.49935 -4.07421 
2916 2 -1.83611 -3.00745 -4.24473 
2766 2 -1.9611 -2.24883 -4.16499 
111 1 -0.998893 -2.90128 -3.57585 
1422 1 0.392395 -3.36948 -3.90007 
2260 1 0.0366772 -2.18426 -3.67848 
1491 1 -0.235081 -2.83282 -3.89569 
1239 1 0.813493 -2.086 -3.59729 
749 1 0.701208 -2.73171 -3.13858 
984 1 1.12277 -2.74746 -4.03759 
2411 1 1.31665 -1.91278 -4.32587 
566 1 2.16805 -2.94233 -4.40398 
169 1 2.96786 -3.21454 -4.10793 
1275 1 3.01296 -2.24557 -4.38508 
3134 2 4.13167 -2.34813 -3.75587 
1527 1 5.07281 -2.10045 -4.58809 
1372 1 5.35874 -2.86981 -4.48805 
721 1 5.78369 -2.74051 -3.65325 
1841 1 5.24969 -2.14465 -3.68872 
1428 1 6.35241 -3.29981 -3.39214 
2858 2 6.55944 -2.87011 -4.57255 
1548 1 -7.15778 -2.87917 -3.64381 
2233 1 6.39425 -2.35123 -3.20154 
1326 1 -6.88189 -2.26293 -4.13675 
1343 1 -6.82381 -1.15198 -3.96379 
2311 1 -6.19348 -1.89139 -3.82724 
2054 1 -5.94291 -1.09026 -3.83779 
1151 1 -5.14362 -0.943963 -4.2223 
1458 1 -3.99582 -0.806655 -4.23529 
262 1 -3.13259 -1.18263 -2.90077 
412 1 -3.43213 -1.71106 -3.98386 
1579 1 -2.6936 -0.615153 -4.77152 
2241 1 -2.97379 -1.42556 -4.7193 
2748 2 -2.26275 -1.4054 -3.88207 
2789 2 -2.3462 -0.595395 -3.8077 
1195 1 -1.1302 -1.74923 -4.52393 
2400 1 -0.839432 -1.97384 -3.70773 
954 1 -1.27664 -1.05172 -3.98666 
3585 2 -0.294787 -0.738228 -4.43651 
393 1 0.587929 -0.107211 -3.7442 
2237 1 0.707904 -1.08507 -3.65751 
75 1 1.10546 -0.951565 -4.44114 
482 1 2.28803 -1.11146 -3.83925 
27 1 3.35359 -1.4282 -4.62178 
1653 1 2.91266 -1.91319 -3.49251 
1237 1 2.18015 -1.86927 -4.18731 
1300 1 2.96814 -1.12248 -4.09068 
2914 2 4.15063 -1.56921 -3.50618 
3483 2 3.85759 -0.922027 -3.58064 
1340 1 5.19222 -1.31987 -3.45285 
2856 2 6.28229 -1.31432 -4.15288 
2363 1 7.055 -1.7558 -3.46957 
3186 2 -6.14343 0.194035 -4.74251 
1568 1 7.16263 0.306961 -3.4292 
2448 1 -5.42906 0.162162 -3.81711 
2010 1 -5.74936 1.09534 -3.63778 
1790 1 -4.74852 -0.206322 -4.25927 
2436 1 -5.08898 0.849086 -4.1229 
1214 1 -3.29711 -0.609894 -3.69688 
2508 1 -3.48488 -0.0195704 -4.1948 
3490 2 -2.2708 0.123905 -3.45861 
3588 2 -2.53122 0.82492 -3.54857 
2609 1 -1.07149 -0.218417 -4.82985 
1064 1 -1.26823 -0.0687716 -3.7274 
3500 2 -0.209387 0.0667144 -4.31158 
1266 1 0.440163 0.719733 -3.56325 
3555 2 -0.422094 0.834207 -4.15535 
876 1 1.58809 -0.470648 -4.0317 
167 1 3.02855 -0.174256 -4.47682 
665 1 2.46509 -0.0621635 -3.70102 
414 1 2.88809 0.679472 -4.0873 
1911 1 3.82824 -0.557602 -4.57868 
891 1 3.85147 0.524063 -4.28151 
3305 2 3.6074 -0.143664 -3.46583 
1325 1 4.8194 -0.507525 -3.13423 
2819 2 5.80215 0.155841 -3.80526 
1328 1 4.69384 -0.627941 -4.29724 
504 1 4.69072 0.26661 -3.50612 
2021 1 4.69874 0.27487 -4.2461 
1999 1 -6.42315 -0.400373 -3.65061 
2902 2 6.11985 -0.535402 -3.94081 
802 1 -7.08359 -0.636184 -4.53057 
2584 1 6.99069 0.142736 -4.32524 
3263 2 -6.47356 0.785884 -4.44174 
3260 2 -6.55069 1.77377 -4.23204 
1725 1 -5.50456 1.62271 -4.41869 
521 1 -4.45265 1.51174 -4.01042 
2383 1 -6.19534 1.7745 -3.12524 
697 1 -4.31262 0.460038 -4.17196 
1148 1 -3.92671 2.30483 -3.88428 
1198 1 -2.19239 2.25852 -4.20064 
2395 1 -3.19015 0.897406 -4.39642 
1484 1 -1.80868 1.61057 -3.76035 
1367 1 -1.52171 0.782242 -4.30422 
1543 1 -1.48995 0.923787 -3.39695 
2950 2 -0.563206 1.50548 -3.92419 
1562 1 0.403384 1.54277 -4.30773 
857 1 0.798492 1.40837 -3.62963 
1065 1 0.851422 0.812744 -4.6507 
1432 1 1.83226 1.12617 -3.59025 
295 1 1.34775 0.509969 -4.00871 
2407 1 3.46874 1.34226 -4.41572 
785 1 2.599 1.57077 -3.80341 
613 1 4.37661 1.3351 -4.14068 
925 1 4.51242 1.12712 -3.38846 
2135 1 3.72446 1.96921 -3.98396 
3209 2 5.55707 0.860243 -3.82028 
3369 2 5.53897 1.62973 -3.7269 
1520 1 4.78829 2.21313 -4.35396 
1282 1 6.85873 0.83567 -4.16061 
1078 1 6.78104 1.51387 -3.67828 
1913 1 6.39672 2.10223 -4.23551 
3033 2 -6.78357 2.44798 -4.19234 
2653 1 -5.8795 3.2806 -4.14357 
3021 2 -6.94097 3.33333 -4.23226 
731 1 -4.66458 2.28259 -3.81121 
1880 1 -5.44034 2.14771 -3.64139 
286 1 -3.90059 3.23777 -4.04527 
2077 1 -3.67452 2.28734 -4.72288 
2490 1 -3.20767 2.85722 -4.35531 
1531 1 -2.13253 2.87747 -3.6515 
1257 1 -1.50663 2.49726 -4.59907 
1706 1 -1.76815 2.26542 -3.24895 
3196 2 -0.751659 2.22116 -3.98465 
2860 2 -0.833972 2.91372 -3.70846 
14 1 0.0683309 3.30861 -4.02089 
2174 1 0.344955 2.54501 -3.3276 
1375 1 1.04206 2.13972 -3.39192 
3063 2 1.50718 2.15995 -4.40212 
3479 2 1.2881 2.84166 -4.2443 
1466 1 2.8416 1.98525 -4.46346 
2313 1 2.33474 2.45339 -3.50184 