ITEM: TIMESTEP
48500
ITEM: NUMBER OF ATOMS
3594
ITEM: BOX BOUNDS pp pp pp
-7.2055825522688375e+00 7.2055825522688375e+00
-7.2055825522688375e+00 7.2055825522688375e+00
-7.2055825522688375e+00 7.2055825522688375e+00
ITEM: ATOMS id type x y z 
1410 1 -6.29213 -6.78447 -6.48133 
239 1 -5.58339 7.08465 -7.05194 
335 1 -5.54532 -6.41106 -6.92686 
3477 2 -5.13092 -6.63749 -6.01207 
3520 2 -5.07549 -5.88835 -5.89281 
1906 1 -4.80448 -6.54623 -7.04542 
2248 1 -3.92654 -6.80462 -5.99901 
418 1 -4.10332 -7.01816 -6.84586 
2944 2 -2.76224 -6.99291 -6.82252 
3574 2 -3.04998 -6.30579 -6.54649 
1893 1 -1.28656 -6.69192 -6.52143 
2630 1 -1.78699 -5.83323 -6.36295 
1567 1 -1.50815 7.04453 -7.08611 
2083 1 -0.506827 -6.67198 -6.13715 
1323 1 0.256753 -6.54255 -6.59575 
2246 1 0.852301 -6.03117 -6.83947 
748 1 1.40992 -6.73591 -6.70935 
2627 1 0.724012 7.07762 -7.0125 
1425 1 1.97556 -6.14011 -6.81612 
3442 2 3.0577 -6.11933 -6.27924 
313 1 2.82738 -6.67523 7.03686 
3587 2 3.27711 -6.89137 -6.26422 
1970 1 4.57877 -7.18413 -6.58279 
589 1 4.32922 -5.51714 -5.9555 
3208 2 5.50892 -6.65707 -6.88978 
916 1 5.03302 -6.57218 -5.922 
1345 1 6.73649 -6.20971 -6.43615 
760 1 -6.82357 -6.00396 -6.36085 
1399 1 -6.4638 -5.32611 -6.00617 
1473 1 -6.00603 -5.61796 -6.69701 
2546 1 -5.2093 -5.61973 -7.07057 
1640 1 -5.21919 -4.57408 -6.82412 
2018 1 -3.91574 -6.18099 7.07784 
1020 1 -4.51673 -5.12653 -6.52774 
472 1 -4.22483 -5.99809 -6.71874 
2981 2 -2.9363 -5.481 -6.40859 
1730 1 -2.12267 -5.3522 6.98479 
3484 2 -0.688603 -5.192 -6.95403 
890 1 -1.86016 -4.91623 -6.70203 
2626 1 -0.831233 -5.82356 -6.19534 
533 1 -0.294178 -5.96981 -5.57545 
1122 1 0.669025 -4.86895 -6.74579 
1587 1 0.124421 -5.64079 -6.55333 
1442 1 1.34755 -5.30461 -6.54892 
2957 2 3.11288 -5.26568 -5.88952 
779 1 2.23168 -5.254 -6.85106 
2933 2 2.78046 -4.5694 -6.05502 
893 1 3.944 -5.388 -6.73691 
2812 2 5.28407 -5.8568 -6.89579 
3212 2 5.14284 -5.20705 -6.70888 
1322 1 5.23571 -4.87861 -5.59485 
2200 1 7.07523 -5.41804 -6.08951 
572 1 7.02763 -4.61041 -6.25482 
639 1 6.42158 -5.42137 -6.85412 
1273 1 5.9469 -5.3875 -5.86496 
153 1 6.1157 -4.65498 -6.21875 
1654 1 -6.41559 -4.36925 -6.16112 
2727 1 -6.7989 -2.97731 -6.09404 
1483 1 -6.14348 -3.63863 -6.65492 
1835 1 -5.23822 -3.73759 -6.65957 
2301 1 -4.25681 -4.3234 -6.81203 
139 1 -3.42058 -4.21748 7.16742 
3061 2 -3.21239 -4.7469 -6.30375 
3041 2 -3.44045 -3.86762 -6.13634 
1822 1 -2.53281 -4.52086 7.11105 
1629 1 -2.15441 -4.06879 -6.51023 
985 1 -2.36412 -3.25293 -6.33026 
2808 2 -0.884105 -4.43923 -6.72732 
3332 2 -1.04794 -3.65343 -6.61544 
1313 1 -0.153739 -4.96126 -6.0218 
1859 1 -0.337528 -2.92589 -7.16559 
103 1 0.187887 -4.28969 -6.41691 
2520 1 1.22595 -4.17379 -6.45339 
566 1 1.64633 -3.29808 -6.22446 
1997 1 2.10041 -4.28196 -6.85277 
1897 1 2.01546 -3.35761 -6.96094 
1648 1 2.8055 -3.419 -6.91792 
2539 1 3.94351 -4.67593 -6.21047 
1372 1 3.72652 -3.77272 -6.65509 
205 1 4.30909 -3.40515 6.9212 
3266 2 4.95178 -4.49245 -6.63096 
2767 2 4.83358 -3.7303 -6.3625 
1918 1 5.99324 -4.48856 7.17796 
1373 1 6.42687 -3.9024 -6.436 
2015 1 -6.89853 -1.8505 -5.75606 
3126 2 7.06886 -3.41941 -7.15929 
2360 1 -6.40623 -2.07229 -6.39883 
519 1 -6.24716 -2.89357 7.17917 
90 1 -5.76241 -2.80557 -6.55515 
936 1 -5.23009 -2.09419 -6.16733 
2869 2 -3.4782 -3.1761 -5.94876 
18 1 -4.49208 -2.47408 -6.66175 
2381 1 -4.20227 -3.40697 -6.9466 
2844 2 -3.67635 -2.4585 -5.91161 
911 1 -3.36218 -3.25911 -7.12744 
743 1 -2.63724 -2.34044 -6.10298 
3234 2 -1.32205 -2.90312 -6.74141 
3105 2 -1.48649 -2.30799 -6.40196 
1489 1 0.0853782 -3.18604 -6.35525 
2298 1 0.507313 -2.51298 -6.08128 
2187 1 -0.450665 -2.66716 -5.82231 
1644 1 0.764177 -3.57948 -6.12108 
2804 2 0.652876 -2.07084 -7.08542 
3347 2 0.902842 -2.83612 -7.09042 
1418 1 1.57664 -1.17366 -7.09994 
2600 1 1.81406 -2.24403 7.09287 
2050 1 2.23886 -1.68991 -6.59898 
190 1 2.72529 -2.51205 -6.69554 
309 1 3.96931 -1.89559 -6.99325 
362 1 3.71313 -2.75744 -6.81432 
1029 1 6.2574 -2.12912 6.69231 
3550 2 4.68746 -2.97336 -6.36982 
2415 1 5.73842 -1.99079 -6.30017 
1597 1 5.71222 -2.62764 -7.1778 
3087 2 6.90148 -2.65497 -6.98876 
346 1 5.7873 -3.1374 -6.21439 
923 1 -6.80524 -1.29004 -7.1515 
41 1 -6.52984 -1.11227 -6.32179 
2892 2 -5.58714 -1.69581 7.11515 
2560 1 -5.76282 -1.47304 -6.08387 
874 1 -4.90708 -1.19306 -6.00826 
2320 1 -4.60969 -1.54514 -6.67116 
571 1 -3.84956 -1.98726 -6.91275 
2601 1 -3.57013 -1.26444 -6.6425 
1928 1 -2.76739 -1.58426 -7.0096 
323 1 -2.58584 -0.553824 -6.96282 
2013 1 -2.97944 -1.4323 -6.05655 
3200 2 -1.86383 -1.59034 -6.46125 
154 1 -0.354462 -2.16027 -6.57397 
3088 2 0.432386 -0.28413 -6.60222 
2609 1 -0.646989 -0.904864 -5.82127 
3151 2 0.388455 -1.10585 -6.90893 
1695 1 1.22606 -1.81252 -6.21999 
1708 1 1.23211 -0.970664 -6.15042 
308 1 2.3523 -0.790248 -6.3728 
151 1 1.36487 -0.345407 6.82728 
1843 1 3.27803 -1.24804 -6.36315 
675 1 4.5534 -1.10135 -7.01963 
1981 1 3.53137 -0.684125 -6.96626 
847 1 3.40372 -2.10137 -6.37212 
453 1 5.22718 -1.78204 -7.07197 
303 1 5.46806 -1.01166 -6.61153 
2840 2 6.75315 -1.89355 -6.65475 
2797 2 6.64564 -0.993448 -6.59661 
1883 1 7.08103 0.22124 -7.09157 
1446 1 -6.84871 -0.215733 -5.99473 
3097 2 -5.88211 -0.190584 -6.85609 
3360 2 -5.59845 -0.924198 -7.19405 
1781 1 -5.06367 -0.28684 -6.22885 
1001 1 -4.20046 -0.578635 -6.52205 
2326 1 -3.91364 0.256772 -6.33267 
2318 1 -4.71951 0.557756 -6.36398 
408 1 -3.09383 0.404489 -6.25568 
1255 1 -2.40617 0.369366 -6.76957 
1485 1 -0.739355 -1.46176 -6.77034 
2390 1 -1.60407 -0.0161428 -7.047 
2796 2 -1.84668 -0.826993 -5.98929 
502 1 -1.24195 0.461215 -6.43422 
3311 2 0.469716 0.418946 -6.50442 
867 1 1.59291 -0.210017 -6.61744 
1218 1 3.11649 -0.435619 -6.14351 
110 1 2.25477 0.216405 -5.91781 
2062 1 3.14563 0.9363 -6.09972 
1824 1 3.49592 0.178057 -6.52722 
2418 1 4.70387 -0.27848 -6.82909 
2122 1 6.09627 -0.835195 6.16279 
1156 1 5.69518 -0.298676 7.1859 
312 1 6.22882 -0.0173588 6.51368 
3135 2 6.47024 -0.245669 -6.36573 
3038 2 6.40546 0.733992 -6.09663 
3007 2 -5.88762 1.56148 -6.6133 
2037 1 -7.1293 1.74849 -6.45555 
3127 2 -5.9196 0.685614 -6.77026 
2386 1 7.17523 1.50814 -7.17973 
718 1 -6.98514 0.894973 -6.33461 
1154 1 -4.90826 1.48667 -6.78967 
415 1 -4.73966 1.18713 6.71765 
1232 1 -4.19324 1.19178 -6.13246 
2081 1 -2.41734 0.772688 6.81197 
2275 1 -2.57596 1.16833 -6.73428 
1265 1 -1.75435 1.70048 -6.55447 
343 1 -1.68097 1.04329 -6.90933 
1971 1 -0.913748 1.82552 -6.75749 
2928 2 0.155282 1.12391 -6.38225 
855 1 1.22786 1.78946 -6.30511 
1998 1 1.88492 1.05554 -6.03321 
2522 1 1.46362 0.702724 -6.64065 
3459 2 2.53288 0.639384 -7.00971 
3393 2 2.30632 1.42144 -7.03308 
795 1 4.28132 0.823789 -6.67216 
171 1 3.62591 1.62111 -6.55633 
1388 1 3.57738 1.01613 -7.20432 
591 1 4.54855 1.73812 -6.42808 
199 1 5.23774 0.298561 -6.67676 
2066 1 5.72112 0.830102 -7.00798 
2353 1 6.14327 1.73455 -7.06195 
3140 2 -6.06957 2.30391 -6.4307 
3465 2 -6.40662 3.00728 -6.2961 
2685 1 -5.10402 2.60613 -6.75992 
1476 1 -5.22272 2.02546 6.98942 
536 1 -4.68076 2.23333 -6.05393 
565 1 -3.82584 1.99453 -5.86073 
3093 2 -3.82931 2.19965 -7.12659 
686 1 -3.11763 1.68759 -6.17874 
2042 1 -2.06734 2.93274 -6.37167 
2466 1 -3.2192 2.7126 -6.07712 
1525 1 -1.12225 1.25505 -5.89707 
287 1 -1.27879 2.74093 -6.30857 
3078 2 -0.024349 1.86024 -6.11594 
3444 2 0.0378703 2.63027 -6.10816 
1773 1 0.941486 2.44727 -6.63864 
3417 2 2.20656 2.19286 -6.69068 
3478 2 2.07619 2.95292 -6.52908 
941 1 2.94755 2.04092 -5.91565 
1677 1 3.95789 2.424 -6.31829 
2530 1 3.22086 2.84277 -6.35249 
32 1 3.33906 2.15563 6.92278 
1414 1 5.03128 1.44521 -5.70423 
2338 1 5.05305 2.53741 -6.49821 
2142 1 4.50132 3.07717 -5.89027 
478 1 5.40016 1.62045 -6.60078 
2724 1 6.84347 3.1846 -6.52039 
2061 1 5.79085 2.59305 -6.94284 
1185 1 6.63344 2.35798 -6.67992 
2736 2 -6.45629 3.71183 -6.08064 
3238 2 -6.40682 4.43735 -5.83211 
2327 1 -7.09507 3.97053 -6.94534 
2594 1 -5.59061 3.80367 -6.90194 
964 1 -5.08983 3.34463 -6.23383 
754 1 -5.14163 4.15484 -5.77544 
2783 2 -4.02446 2.95157 -6.70524 
3408 2 -4.09338 3.79896 -6.6027 
2229 1 -3.51767 3.46493 -5.71125 
341 1 -2.70013 4.34019 -6.14637 
1098 1 -2.80706 3.44697 -6.2947 
507 1 -3.12176 3.98943 -6.87524 
673 1 -1.39933 2.89839 -5.51549 
2524 1 -1.7514 4.61957 -5.9692 
2285 1 -1.937 3.75312 -6.19879 
945 1 -1.05399 3.52024 -6.55905 
2271 1 0.203251 3.76134 -6.95179 
1663 1 0.646316 4.24353 -6.40917 
215 1 -0.287809 4.55843 -6.82931 
1932 1 0.958577 3.50754 -6.07547 
3466 2 2.02412 3.72867 -6.44278 
3138 2 1.7677 4.54085 -6.28548 
2261 1 3.15838 3.8429 -6.32818 
1516 1 3.01879 3.01274 -7.19683 
1978 1 3.04197 3.95393 -7.10817 
3551 2 4.14221 3.70857 -7.13197 
2765 2 4.15602 2.97807 7.10621 
2379 1 4.08724 4.24796 -5.75971 
1965 1 4.86264 4.18472 -5.78554 
339 1 6.03445 3.465 -6.51774 
1758 1 5.03108 3.48925 -6.34559 
2597 1 6.67843 4.28539 -6.24652 
34 1 6.84923 3.72959 -5.73026 
2707 1 6.72901 5.12345 -5.404 
3045 2 -6.8009 5.15764 -5.83081 
862 1 -6.20182 5.91257 -6.42796 
292 1 -6.41419 5.12039 -6.84676 
1727 1 -5.58106 4.51016 -6.50301 
3471 2 -4.43927 5.34367 -6.51819 
2440 1 -5.64757 5.55176 -5.94496 
1512 1 -3.49745 4.53636 -5.74216 
966 1 -3.33355 4.96947 -6.69398 
3411 2 -4.3171 4.55264 -6.65691 
1481 1 -3.53147 6.09203 -6.59901 
1391 1 -3.38138 5.50236 -5.96871 
1344 1 -2.50899 5.16674 -5.89595 
2832 2 -2.16643 5.14727 -6.97041 
225 1 -1.47383 5.38941 -6.32493 
1506 1 -1.02733 5.37856 6.98016 
2675 1 0.231935 4.94533 -6.39673 
282 1 -0.573792 5.32421 -6.72013 
1747 1 -1.10269 4.47238 -6.56793 
2831 2 1.47065 5.30212 -6.1423 
1068 1 2.68869 4.81356 -6.70032 
1889 1 2.73036 5.59318 -6.45675 
3223 2 4.08893 4.42666 -6.83426 
3215 2 3.77225 5.03649 -6.72003 
1311 1 4.51861 5.79327 -5.88436 
1871 1 6.09761 4.87968 -6.36509 
865 1 5.36391 5.56187 -6.54653 
1616 1 7.09266 4.86137 -6.83733 
2701 1 7.15437 5.42704 6.91266 
1341 1 6.55626 5.55088 -6.39333 
1117 1 -6.42709 6.80958 -6.59269 
317 1 -6.99267 5.90104 -6.7952 
3150 2 -5.04968 6.75546 -6.22744 
2706 1 -5.55473 6.18499 -7.09523 
942 1 -5.92511 6.38125 -5.7016 
3463 2 -4.62596 6.14483 -6.42441 
2446 1 -3.73509 6.66305 -7.18138 
392 1 -3.60955 6.83572 -6.20125 
3454 2 -2.51853 5.85455 -7.06179 
3268 2 -2.51022 6.63269 -6.92419 
1984 1 -1.49174 6.25116 -6.31207 
1643 1 -0.619634 6.27102 -6.62545 
1881 1 -1.86933 7.18673 -6.20983 
1093 1 -0.78183 7.0483 -6.3104 
1850 1 0.125944 6.89084 -6.35563 
1935 1 0.184972 5.9155 -6.44618 
2899 2 1.20948 6.11975 -5.97764 
255 1 1.52607 6.75111 -6.83164 
2978 2 1.19033 7.01682 -5.7055 
1167 1 0.859431 6.2246 -7.04894 
703 1 2.5005 6.46709 -6.26185 
849 1 2.16155 -7.08262 -6.73109 
2790 2 3.74551 6.00845 -6.62815 
3569 2 3.57881 6.72849 -6.5175 
2787 2 5.70959 6.95568 -6.93849 
1681 1 5.7645 6.23549 -6.11404 
452 1 6.39366 6.91053 -5.9876 
924 1 4.95139 6.34035 -6.65076 
2678 1 4.76465 5.68165 -7.18865 
522 1 5.58616 7.11438 -5.68023 
829 1 6.9218 6.6695 -6.73905 
610 1 -7.18761 -6.95121 -6.66005 
1263 1 -6.11108 -7.0816 -5.74368 
2747 2 -7.13413 -6.97773 -5.51227 
695 1 -6.1739 -6.19915 -5.72352 
1291 1 -5.66801 -6.52257 -4.99575 
698 1 -4.8671 -6.73301 -4.80445 
1149 1 -4.42584 -6.69416 -3.91476 
2002 1 -4.19299 7.11207 -5.3069 
2674 1 -4.21644 -6.07469 -5.09014 
197 1 -2.92381 7.09799 -5.67481 
1979 1 -2.54984 -6.63718 -5.30858 
1435 1 -2.14154 -6.50678 -5.98298 
2835 2 -3.28664 6.96371 -4.66228 
3594 2 -1.26555 -6.45676 -5.30385 
3455 2 -1.08812 7.14903 -5.25459 
1385 1 -0.0785053 -6.745 -5.37191 
1422 1 0.560446 -5.57628 -4.47646 
2453 1 0.046896 -7.10308 -4.66298 
3128 2 0.831313 -6.64713 -5.71637 
2238 1 1.88853 -6.64434 -4.90358 
2491 1 1.95343 -6.23464 -5.90951 
1234 1 2.46578 -5.48662 -5.03133 
811 1 2.82145 -7.09285 -5.20055 
932 1 4.11922 -6.30315 -5.6466 
1416 1 3.09401 -6.23116 -5.0779 
1019 1 3.63979 -5.53137 -5.15373 
2825 2 4.70781 -5.89393 -4.70631 
98 1 5.16743 -5.78036 -5.76775 
3290 2 5.07499 -6.61781 -4.80032 
13 1 6.02882 -6.54744 -5.9318 
1985 1 5.93178 -6.0548 -5.21067 
3487 2 7.15843 -6.29614 -5.20344 
2137 1 -6.27077 -5.34064 -5.12545 
683 1 -6.60183 -4.40849 -5.2525 
316 1 -6.51969 -5.81052 -4.38305 
3416 2 -5.3854 -5.27996 -5.65419 
3325 2 -5.4133 -4.51066 -5.70672 
2323 1 -5.44437 -4.78197 -4.56911 
2702 1 -3.97297 -4.79637 -5.53753 
2516 1 -4.64946 -4.32668 -4.94061 
959 1 -4.53562 -5.19266 -4.89882 
833 1 -4.09802 -5.61669 -5.93379 
228 1 -2.88673 -4.7699 -5.0349 
1308 1 -2.33436 -5.64785 -5.64437 
2549 1 -3.36072 -6.34542 -5.44226 
2262 1 -3.39805 -5.45645 -5.24538 
3322 2 -1.26907 -5.77212 -4.92681 
897 1 -1.32271 -5.01826 -5.92204 
3480 2 -1.58499 -5.08107 -4.65221 
245 1 -0.152183 -6.29887 -4.50206 
786 1 -0.233088 -5.31701 -4.99631 
1050 1 0.0783477 -4.81545 -4.34762 
774 1 1.9401 -5.349 -5.90433 
2826 2 0.802187 -5.81399 -5.6805 
3068 2 0.961742 -5.00156 -5.49817 
2623 1 1.5833 -5.85125 -4.8976 
1575 1 2.80301 -4.73824 -4.59228 
984 1 2.34137 -3.8934 -4.84052 
1896 1 3.30908 -5.41424 -4.44148 
1211 1 4.31983 -4.78671 -5.44022 
451 1 5.74068 -5.18916 -5.04425 
3340 2 4.69261 -5.20639 -4.45761 
1994 1 5.7625 -4.00344 -5.68814 
2670 1 5.48971 -4.2666 -4.61863 
2828 2 6.94149 -5.55242 -5.04022 
2721 1 -7.1443 -3.79981 -5.85052 
92 1 -7.05764 -2.45641 -5.17079 
2912 2 -5.60461 -3.82856 -5.56183 
1182 1 -5.05037 -3.34972 -4.65701 
88 1 -4.52717 -3.37243 -5.58658 
1140 1 -4.51415 -4.16663 -6.02666 
842 1 -2.08076 -4.60107 -5.66502 
520 1 -2.50299 -3.90333 -5.42629 
913 1 -3.61969 -4.20478 -5.09485 
523 1 -3.31975 -3.30168 -4.57848 
607 1 -1.00381 -3.14784 -5.48203 
2052 1 -0.671373 -4.7113 -5.42972 
922 1 -1.40791 -3.98352 -5.50849 
541 1 -0.378571 -3.83707 -5.79864 
2768 2 0.604972 -4.25852 -5.275 
3227 2 0.432902 -3.4792 -5.0331 
840 1 1.82671 -4.3731 -5.88441 
400 1 1.28289 -2.63708 -5.66294 
692 1 1.65447 -3.53622 -5.31117 
1415 1 3.22232 -4.21057 -4.07687 
3249 2 2.79017 -3.73435 -5.82723 
3014 2 2.56518 -2.97381 -5.74312 
1160 1 3.87364 -3.93392 -5.67726 
2145 1 3.57238 -4.49545 -4.9483 
850 1 3.22134 -3.70165 -4.80452 
1364 1 4.86114 -3.97903 -5.25988 
2306 1 5.83901 -3.72454 -6.9002 
499 1 5.51896 -3.1432 -5.32258 
3010 2 6.80048 -4.72342 -5.12245 
3080 2 6.52181 -3.8656 -4.94275 
148 1 -7.02844 -1.04041 -5.61461 
1444 1 -7.19371 -1.7111 -4.83417 
2890 2 -5.87842 -2.33883 -5.23934 
2737 2 -5.81658 -3.0878 -5.4757 
1445 1 -4.84473 -3.07253 -6.24531 
2661 1 -4.77469 -2.43154 -5.47545 
1087 1 -4.084 -3.30534 -5.02377 
484 1 -3.28301 -2.30679 -4.42483 
1112 1 -2.87782 -2.86543 -5.12249 
2511 1 -0.919325 -2.34705 -4.85703 
2631 1 -1.97266 -3.26358 -5.5963 
460 1 -0.7469 -1.78372 -5.75174 
3430 2 0.324823 -2.59206 -4.96397 
2411 1 1.76055 -2.50009 -6.53055 
656 1 1.25012 -1.73491 -4.9756 
2830 2 2.39842 -2.32669 -5.29641 
873 1 3.03925 -1.9464 -4.61136 
1527 1 3.61006 -2.9589 -5.99117 
1945 1 3.37193 -2.7781 -4.86508 
1841 1 4.81219 -2.83677 -5.13374 
1911 1 3.54221 -2.27139 -5.52545 
296 1 4.15859 -3.14566 -5.31844 
2072 1 5.36364 -2.56954 -4.34438 
2101 1 5.77749 -2.24406 -5.4639 
2126 1 6.53258 -3.06136 -5.94066 
2021 1 6.64461 -2.32268 -5.67254 
3173 2 6.43498 -3.13967 -4.74858 
2993 2 -6.19194 -0.941753 -4.79127 
2974 2 -6.0499 -1.56735 -5.02871 
1224 1 -6.06254 -0.344456 -5.80374 
1369 1 -6.86614 -0.45338 -7.08 
477 1 -5.24738 -0.640789 -5.52501 
1151 1 -4.94082 -1.60441 -5.20066 
2480 1 -5.02357 -0.83693 -4.72453 
3543 2 -3.93635 -1.86552 -5.60012 
3256 2 -3.95854 -1.14223 -5.63057 
2699 1 -2.63157 -1.82612 -5.1618 
2465 1 -2.39274 -1.05739 -5.10584 
1635 1 -2.96828 -0.659386 -5.38747 
2302 1 -3.26167 -1.4163 -4.65933 
1064 1 -1.99773 -2.39028 -5.39448 
2139 1 -1.39161 -1.65474 -5.19274 
3354 2 0.108127 -1.78382 -4.79953 
1562 1 0.360428 -1.70637 -5.90284 
2673 1 0.890757 -0.965357 -5.24374 
75 1 0.818107 -0.497361 -4.55782 
167 1 0.778482 -1.4307 -4.10034 
1876 1 3.3601 -1.49956 -5.50949 
3356 2 2.15253 -1.62117 -5.5343 
3557 2 2.05681 -0.871072 -5.21692 
2645 1 3.99882 -1.42033 -4.92986 
2995 2 4.51176 -1.32619 -5.9679 
1275 1 4.37094 -2.13573 -5.00931 
2972 2 4.69831 -2.21055 -6.06354 
130 1 5.1254 -1.82914 -4.85734 
2231 1 6.05326 -0.60457 -5.41712 
1672 1 6.56517 -1.30192 -5.33747 
304 1 5.57568 -1.38475 -5.65521 
561 1 -6.13701 0.68963 -5.57093 
1472 1 7.16764 0.51184 -5.45112 
3267 2 -6.26477 -0.195465 -4.72871 
1353 1 -5.34801 0.397515 -5.70544 
1953 1 -5.22639 -0.0387895 -4.82278 
3144 2 -4.15734 -0.415565 -5.40427 
2861 2 -4.25378 0.309894 -5.16519 
1772 1 -3.06291 -0.448306 -6.32225 
174 1 -1.64819 -0.766626 -4.8902 
2939 2 -1.97643 -0.0386964 -5.86961 
2108 1 -3.09276 0.162519 -5.33963 
603 1 -0.991318 -0.352144 -5.20904 
2589 1 -0.587063 -0.249319 -6.31857 
295 1 0.139977 -0.739388 -5.67135 
2080 1 1.3334 -0.0507151 -5.87029 
3449 2 1.98254 -0.126113 -4.94304 
3383 2 2.0199 0.720469 -4.96913 
1763 1 0.706175 0.00648687 -5.21612 
2730 1 2.95719 0.342494 -5.61599 
2150 1 3.14058 0.97349 -4.63516 
40 1 3.20017 -0.558157 -5.3153 
3317 2 4.23188 -0.596865 -5.92548 
2848 2 4.19379 0.190636 -5.56905 
1362 1 5.05683 -0.610335 -5.16757 
504 1 5.38327 -0.398734 -6.0454 
1340 1 5.69293 0.213026 -5.35901 
665 1 5.07586 0.197082 -4.71915 
2311 1 6.89831 -0.303436 -5.24384 
1548 1 5.99413 1.09857 -4.95916 
668 1 7.14902 1.53217 -5.20096 
50 1 -6.62318 1.47618 -5.72379 
1607 1 -6.51417 2.24468 -5.28988 
305 1 -5.7692 1.63505 -5.42996 
1288 1 -5.12961 1.3577 -5.82127 
443 1 -5.56244 1.77924 -4.55967 
1725 1 -5.38163 0.840468 -4.7468 
3062 2 -4.36866 1.1325 -5.0712 
2241 1 -3.45076 1.10036 -5.77332 
330 1 -2.33071 -0.0856989 -4.79294 
2846 2 -2.0524 0.795161 -5.65291 
28 1 -2.51573 1.72804 -4.32396 
286 1 -3.06095 0.820304 -4.87549 
994 1 -0.613213 0.52171 -5.73503 
1517 1 -0.878638 1.12421 -5.03126 
2647 1 -1.39798 0.31106 -4.61135 
14 1 -0.150121 1.75288 -5.07735 
84 1 0.111997 0.990255 -5.31831 
324 1 -0.0250737 -0.0381638 -5.54275 
497 1 1.01821 1.62994 -5.48672 
904 1 1.11433 0.719752 -5.64837 
371 1 1.99686 1.83973 -5.64328 
3443 2 1.73542 1.4693 -4.70952 
805 1 2.6398 1.36153 -5.50469 
1368 1 2.85028 1.91682 -4.84741 
3364 2 4.08065 0.97966 -5.52745 
2074 1 5.0971 1.00043 -4.98841 
1574 1 4.88603 2.35294 -5.69542 
2087 1 5.13327 0.665928 -5.98913 
3060 2 6.24492 1.58345 -5.90998 
556 1 6.85704 1.06779 -4.5822 
2576 1 -5.43708 3.58371 -3.50015 
723 1 7.09697 2.69205 -5.56505 
83 1 -6.93145 3.45034 -5.13483 
1336 1 -5.51148 2.49644 -5.39231 
2396 1 -6.32 3.05837 -4.95946 
1691 1 -4.40271 3.04623 -5.68363 
433 1 -3.2488 1.72115 -4.92304 
2845 2 -4.36033 1.88858 -5.02744 
2077 1 -3.68422 2.62816 -5.36118 
3456 2 -4.54101 2.52489 -4.56143 
3117 2 -2.15835 1.6281 -5.6006 
803 1 -2.71888 2.93873 -4.04973 
2945 2 -2.31299 2.47191 -5.32492 
1057 1 -1.02549 2.06049 -5.56969 
1053 1 -0.746112 3.3952 -4.91023 
1993 1 -0.323961 2.6589 -5.02968 
1924 1 0.655809 3.06769 -5.14288 
1848 1 1.25447 2.55548 -5.68231 
441 1 2.64087 2.94722 -4.62457 
1056 1 2.13889 2.60572 -5.42873 
2542 1 2.86931 3.06229 -5.62994 
2592 1 2.18856 3.90601 -4.70589 
3388 2 3.98252 1.7116 -5.3093 
3433 2 3.78118 2.51495 -5.21239 
2276 1 6.23439 1.91513 -4.6477 
23 1 4.77922 2.75619 -4.91198 
2147 1 5.42937 1.8455 -4.76239 
3414 2 5.94997 2.38822 -5.71796 
1207 1 6.99859 2.51738 -4.6911 
3298 2 5.79604 3.16979 -5.53876 
1282 1 6.65308 3.34142 -4.67505 
1238 1 -6.60182 4.46693 -4.79439 
2297 1 -7.05226 5.20862 -4.72825 
1910 1 -5.96011 3.59816 -4.36492 
59 1 -5.49964 3.26479 -5.51561 
131 1 -5.82187 3.97573 -5.02201 
2885 2 -4.79119 3.28673 -4.67844 
912 1 -3.78705 4.2774 -4.89792 
1991 1 -3.557 3.25604 -4.86419 
2977 2 -2.42608 3.20918 -4.97196 
2865 2 -2.54069 3.843 -5.09639 
177 1 -1.37624 4.38572 -4.87488 
46 1 -0.393162 4.07723 -4.55892 
175 1 -1.37638 3.82165 -5.54081 
2813 2 -0.13134 3.38844 -5.94727 
3378 2 -0.347044 4.15398 -5.71989 
1687 1 0.113185 3.40176 -4.54835 
2669 1 0.262016 4.4419 -4.73701 
1639 1 0.544261 5.03366 -5.58384 
1249 1 0.708327 4.05225 -5.24932 
301 1 1.68641 3.41091 -5.38791 
1521 1 1.47982 4.23118 -5.33054 
899 1 2.53823 3.8473 -5.51033 
2711 1 3.78183 3.46348 -5.9916 
2814 2 3.57438 4.17828 -4.78934 
2894 2 3.52188 3.32223 -4.99486 
709 1 4.61455 3.50626 -5.18577 
2927 2 5.67903 4.75355 -5.29774 
2917 2 5.80151 4.00171 -5.29426 
2092 1 4.85403 4.36688 -4.80848 
925 1 5.23443 3.60421 -4.40331 
1092 1 7.05778 4.18615 -5.06886 
2414 1 6.59023 5.71583 -4.67464 
2715 1 -5.71469 5.05254 -5.16647 
2317 1 -6.17776 5.15765 -4.34356 
2473 1 -4.77708 4.85852 -5.52188 
2342 1 -4.12545 5.26633 -5.48927 
1229 1 -4.28905 3.94416 -5.48764 
1721 1 -4.05419 5.06664 -4.6477 
2688 1 -4.22475 5.94493 -4.7165 
3458 2 -2.68987 4.52367 -4.81987 
2988 2 -2.91302 5.32493 -4.82999 
2401 1 -1.91945 4.99784 -5.20717 
345 1 -1.78693 5.72859 -5.08388 
3207 2 -0.699893 5.72098 -5.59958 
3392 2 -0.768173 4.95624 -5.61688 
1767 1 0.11428 5.23503 -4.63385 
1269 1 -0.447332 6.01898 -4.47022 
2429 1 1.38447 5.0986 -5.11424 
15 1 2.44566 4.98951 -5.63306 
2564 1 1.10139 6.07523 -4.8951 
1878 1 3.22519 4.49787 -5.84725 
2762 2 3.17405 4.91738 -4.67347 
1130 1 3.11125 5.56185 -5.60674 
16 1 4.81824 5.04104 -6.16799 
696 1 3.85543 5.16584 -5.53316 
459 1 4.55427 5.02554 -5.11019 
1882 1 4.84963 6.78796 -5.88657 
3257 2 5.57637 5.56751 -5.27816 
2971 2 5.21923 6.19383 -5.04993 
806 1 6.5245 6.03559 -5.67888 
1331 1 6.43154 4.59355 -4.37146 
3147 2 -6.81366 5.87119 -5.55428 
3330 2 -6.97078 6.65529 -5.38981 
1184 1 -6.34214 6.03649 -4.07683 
29 1 -6.55807 6.91997 -4.40786 
587 1 -6.03055 6.12295 -4.81768 
297 1 -5.05983 5.83499 -5.23 
2321 1 -5.96216 7.0035 -4.9435 
1346 1 -3.98423 6.27512 -5.51922 
2033 1 -5.01972 6.85997 -5.03468 
2603 1 -2.90529 6.25172 -5.85585 
1370 1 -2.10639 6.11725 -5.84749 
2635 1 -2.08875 6.87084 -5.41413 
3018 2 -0.931735 6.42108 -5.3154 
1356 1 0.422817 5.82241 -5.34542 
1799 1 0.0204501 6.85677 -5.5442 
1107 1 0.241841 6.50069 -4.76161 
1289 1 0.955864 7.04714 -4.56615 
427 1 2.03938 6.80589 -4.9932 
1837 1 2.23528 -7.02635 -5.94793 
2096 1 2.04909 5.88179 -5.27215 
2048 1 2.84327 6.41432 -5.41441 
248 1 3.681 6.71846 -5.40772 
798 1 4.30257 -7.10996 -5.60943 
2483 1 3.99813 6.75147 -4.6038 
2926 2 4.98621 6.99019 -4.72255 
1667 1 6.25667 6.54195 -4.81519 
440 1 6.25364 -7.03077 -5.00963 
1939 1 -7.14446 6.11175 -4.39595 
2533 1 -6.43822 -6.52698 -4.62479 
2571 1 -6.7242 -6.54773 -3.58164 
1664 1 -7.07731 -5.83266 -3.92114 
3375 2 -5.63743 -6.48705 -3.69879 
595 1 -5.47875 -5.74227 -4.64149 
3413 2 -3.35923 -6.74538 -4.26699 
2146 1 -4.64916 -5.8713 -4.17231 
202 1 -4.37377 6.9812 -3.46817 
2102 1 -3.76918 -6.86419 -3.19299 
2439 1 -2.57025 -5.84574 -4.73294 
1406 1 -1.90605 -6.42344 -4.08861 
1665 1 -2.19625 -6.96705 -4.64738 
2726 1 -2.53119 -6.731 -3.67384 
1144 1 -1.01595 -6.19058 -3.80886 
1089 1 -0.706288 -6.90612 -4.26975 
3056 2 0.35341 -6.83894 -3.57306 
1538 1 0.909245 -6.34737 -4.63518 
2105 1 1.32895 -5.96369 -3.87941 
2525 1 1.28808 -6.26981 -3.14762 
2918 2 2.59031 -6.39935 -4.0203 
3303 2 2.72604 7.1916 -4.05851 
189 1 3.64583 -6.91382 -4.86125 
112 1 3.29819 -6.92673 -3.18254 
1000 1 4.26603 -6.4176 -3.5827 
72 1 4.57939 7.2007 -3.61965 
2659 1 5.19876 -6.5666 -3.66771 
1013 1 6.26661 -6.39582 -4.24379 
1863 1 5.94823 -7.13894 -4.13136 
2388 1 -6.82615 -4.92004 -4.41438 
3286 2 -6.07293 -4.96553 -3.53419 
844 1 -7.19344 -4.73409 -3.6435 
642 1 -4.79646 -5.02176 -4.01699 
2896 2 -5.67883 -5.59773 -3.66374 
1542 1 -6.11486 -4.22991 -4.62048 
808 1 -4.89706 -5.06542 -3.02046 
3562 2 -3.53219 -5.98938 -4.07875 
3536 2 -3.73409 -5.19156 -4.21674 
2176 1 -2.37031 -4.69263 -3.70361 
2038 1 -2.63177 -5.34405 -4.13086 
666 1 -2.77587 -6.01181 -3.34974 
1127 1 -1.88878 -5.63811 -3.66629 
1931 1 -0.663879 -4.56539 -3.94665 
1585 1 -0.552103 -5.54585 -4.14066 
1028 1 1.25367 -4.96748 -4.43225 
3236 2 0.226663 -6.06477 -3.50665 
1611 1 1.96772 -4.80201 -5.03641 
247 1 1.15847 -5.01507 -3.51673 
3379 2 2.35474 -5.59258 -3.82031 
3230 2 2.27878 -4.78644 -3.65216 
2469 1 3.6216 -6.11531 -4.30979 
834 1 3.62735 -5.08108 -3.75719 
1741 1 4.09354 -5.57989 -3.49974 
997 1 5.90039 -5.6804 -4.22584 
1256 1 5.10874 -5.83753 -3.41278 
2507 1 6.66767 -5.39636 -4.08773 
1354 1 -7.03085 -4.09514 -4.23873 
1251 1 -6.83469 -3.43928 -5.18361 
3100 2 -6.23837 -4.14977 -3.42675 
3051 2 -6.39191 -3.42342 -3.09348 
1361 1 -5.29243 -4.07932 -4.12667 
56 1 -5.46018 -3.30775 -3.79658 
550 1 -4.9922 -4.37075 -3.46145 
3376 2 -3.88742 -4.37774 -4.10945 
3083 2 -4.2284 -3.68173 -3.89762 
977 1 -2.88758 -4.05127 -4.24219 
2044 1 -3.15545 -3.21736 -3.78364 
1299 1 -2.38502 -3.92187 -3.51635 
3285 2 -1.5451 -4.21292 -4.47619 
3198 2 -1.96892 -3.57117 -4.45209 
1846 1 -1.62515 -4.5995 -3.38238 
358 1 -0.693465 -3.50976 -3.73747 
2058 1 -0.471024 -4.05206 -4.77295 
1195 1 0.23237 -3.84929 -4.06306 
1491 1 0.761093 -4.49869 -3.97385 
2540 1 1.43134 -4.11344 -4.65191 
3320 2 1.96608 -3.27303 -3.58397 
3015 2 2.1764 -4.02264 -3.60821 
2558 1 2.36878 -3.15042 -4.56927 
2857 2 4.3484 -3.63998 -4.18726 
27 1 3.1588 -4.2587 -2.93919 
3244 2 4.36889 -4.48114 -4.30593 
1595 1 5.38263 -3.39025 -4.36393 
1428 1 5.47542 -4.89044 -3.87371 
168 1 5.90972 -3.91029 -3.77909 
31 1 5.16454 -4.29208 -3.3989 
2521 1 6.28897 -4.57118 -4.01643 
1851 1 -7.15696 -3.14619 -4.12166 
1294 1 -6.74582 -2.4578 -4.41111 
2612 1 -6.2784 -3.38568 -4.46433 
2351 1 -6.10419 -1.76695 -3.97883 
2375 1 -5.89219 -2.60729 -3.9389 
318 1 -4.86934 -2.50461 -4.69767 
1392 1 -5.14444 -3.39996 -2.93866 
965 1 -4.02744 -2.48774 -4.72694 
3229 2 -4.27062 -2.81244 -3.70092 
3447 2 -4.28174 -1.98229 -3.51235 
1285 1 -3.17748 -2.42116 -3.63625 
2766 2 -2.1029 -2.09364 -4.07866 
1380 1 -2.43322 -3.01761 -3.45055 
2916 2 -1.92329 -2.75041 -4.40509 
1266 1 -1.26578 -2.7627 -3.5166 
2639 1 -1.52113 -3.57773 -3.2838 
527 1 -0.613612 -3.24662 -4.55996 
2400 1 -0.916371 -1.96778 -3.79504 
2263 1 -0.23646 -2.68642 -3.93911 
749 1 1.23636 -3.47848 -4.235 
1239 1 0.931396 -2.32878 -3.9868 
1215 1 1.56157 -2.74731 -4.61447 
1830 1 2.77167 -2.5844 -4.0116 
1653 1 3.18539 -3.45882 -4.03366 
1759 1 2.80262 -2.17741 -3.38709 
3353 2 4.13767 -2.76005 -4.08367 
3134 2 3.89839 -1.94072 -3.94953 
2211 1 6.43169 -2.91947 -3.55332 
2646 1 4.86879 -2.2895 -3.39274 
960 1 4.90533 -1.62983 -3.95431 
85 1 5.5793 -3.0293 -3.54224 
2858 2 6.3658 -2.21839 -4.57107 
721 1 5.89048 -2.05262 -3.42492 
2132 1 -7.00019 -1.51264 -3.96328 
2657 1 7.03342 -2.37304 -3.65802 
1326 1 7.03442 -0.860346 -4.48924 
1568 1 6.84465 -0.936811 -3.59276 
1316 1 -5.70176 -1.60068 -3.33907 
2436 1 -5.07802 -1.78047 -4.38447 
2605 1 -4.1196 -1.54246 -4.47564 
159 1 -4.20653 -0.692709 -4.33225 
1790 1 -3.33331 -1.53455 -3.82815 
2748 2 -2.36826 -1.29979 -3.92766 
667 1 -1.37241 -0.437072 -4.12052 
858 1 -1.23017 -1.37799 -4.35598 
3585 2 -0.25624 -1.11667 -4.5653 
1065 1 -0.3795 -1.20498 -3.48311 
393 1 0.517013 -0.859862 -3.65504 
1055 1 0.173889 -1.98895 -3.66582 
2020 1 1.26073 0.0825651 -4.21962 
876 1 1.46055 -1.06825 -4.21492 
1085 1 1.93925 -2.10064 -4.20338 
1300 1 2.32313 -1.29316 -4.074 
2407 1 2.865 -0.904683 -4.53659 
609 1 2.46617 -1.27925 -3.1952 
76 1 3.69941 -0.702943 -4.64856 
2914 2 3.61052 -1.29211 -3.44556 
3483 2 3.5359 -0.540593 -3.70526 
734 1 4.76967 -0.643159 -3.59142 
410 1 4.53905 -1.04948 -4.51299 
1791 1 6.70988 -1.66806 -3.28191 
3116 2 6.10759 -1.44477 -4.40093 
2856 2 5.83425 -0.70953 -4.28375 
1560 1 -7.01397 -0.157833 -3.53905 
2028 1 -6.30576 0.209475 -3.36414 
3186 2 -6.48103 0.535243 -4.6466 
697 1 -5.38825 -0.733546 -3.99489 
2363 1 -5.46041 0.246673 -3.94215 
2054 1 -5.81118 0.966798 -3.44951 
1787 1 -4.44707 0.251732 -4.1128 
1671 1 -3.71159 0.174335 -3.34907 
1809 1 -3.46535 -0.746876 -3.51051 
1623 1 -3.46553 -0.603002 -4.49502 
2789 2 -2.40881 -0.537274 -3.87114 
3490 2 -2.25367 0.180945 -3.69041 
605 1 -0.988089 -0.00575485 -3.60356 
1441 1 -0.217618 -0.457882 -3.20015 
1777 1 -2.25734 0.789958 -4.56907 
2228 1 -1.34938 0.885371 -3.83499 
3500 2 -0.245269 -0.315506 -4.47297 
3555 2 -0.26062 0.49191 -4.29704 
1432 1 0.440958 0.269651 -3.44189 
892 1 0.760215 0.724461 -4.73038 
414 1 1.99691 -0.44999 -3.87652 
1375 1 0.979307 1.11533 -3.73668 
2460 1 2.57899 -0.423838 -3.20461 
2084 1 2.62249 0.0616356 -4.07698 
2135 1 3.20611 0.0957357 -4.64403 
1325 1 4.53883 1.16623 -3.39734 
388 1 4.29218 0.00231156 -4.53825 
2201 1 4.79741 0.224096 -3.82444 
82 1 4.79234 1.06382 -4.2546 
802 1 7.07321 0.00355725 -4.29211 
2902 2 5.88413 0.0437906 -4.07896 
2642 1 6.52532 0.361497 -4.83439 
49 1 7.05869 0.694831 -3.7988 
3263 2 -6.48335 1.28802 -4.4002 
3260 2 -6.65737 2.08431 -4.26222 
2448 1 -4.62299 1.04907 -3.7953 
1169 1 -5.31663 1.3594 -3.89207 
731 1 -4.02974 1.95094 -3.72873 
1853 1 -5.93156 1.89694 -3.48316 
2508 1 -3.73137 1.19609 -4.10786 
594 1 -3.45628 0.253673 -4.30846 
521 1 -3.92894 1.21336 -3.16972 
3588 2 -2.68581 0.829713 -3.49205 
3120 2 -2.90997 1.57661 -3.31771 
883 1 -1.47109 1.57908 -4.57981 
2713 1 0.476086 2.14253 -5.14695 
2950 2 -0.332555 1.28088 -4.14179 
2186 1 0.239977 0.938876 -3.01519 
2650 1 1.78329 0.699338 -3.76617 
1706 1 0.539785 1.51321 -4.52589 
2575 1 2.60078 0.996266 -3.92356 
1788 1 3.65552 1.59871 -4.33445 
727 1 2.80183 2.04189 -4.01901 
377 1 3.97425 0.889902 -4.29388 
710 1 4.39538 2.19363 -3.55182 
3394 2 3.43598 1.05828 -3.29034 
2819 2 5.82954 0.815968 -3.86474 
3209 2 5.68848 1.54 -3.56869 
2380 1 4.60047 1.95502 -4.42086 
1927 1 6.74548 1.64599 -3.93605 
3033 2 -6.75572 2.76822 -3.92074 
1060 1 -5.70075 2.64403 -4.37716 
554 1 -4.89376 2.15658 -3.55995 
2641 1 -4.78865 3.09756 -3.38561 
2551 1 -3.84349 2.8578 -3.74604 
2395 1 -3.37441 2.4459 -4.432 
2490 1 -2.06071 2.3787 -4.1975 
291 1 -2.35891 3.63027 -3.67416 
1198 1 -1.82653 3.48172 -3.0217 
823 1 -1.14645 2.32602 -4.84178 
1367 1 -1.87402 2.81082 -3.54791 
2860 2 -0.779249 2.76953 -3.79356 
772 1 0.404735 2.38049 -4.21909 
3196 2 -0.59701 2.04343 -3.98602 
3241 2 1.50048 2.17161 -4.5833 
3063 2 1.62142 2.96652 -4.40919 
2313 1 1.17332 2.12597 -3.6307 
1466 1 2.77185 3.70633 -4.04613 
2325 1 2.5295 2.90511 -3.68771 
1524 1 3.50766 2.60097 -3.91524 
614 1 4.26595 2.92082 -4.19878 
194 1 5.67858 2.8664 -4.4317 
3369 2 5.50556 2.2699 -3.65541 