ITEM: TIMESTEP
35200
ITEM: NUMBER OF ATOMS
3594
ITEM: BOX BOUNDS pp pp pp
-7.1987983256793653e+00 7.1987983256793653e+00
-7.1987983256793653e+00 7.1987983256793653e+00
-7.1987983256793653e+00 7.1987983256793653e+00
ITEM: ATOMS id type x y z 
2573 1 -6.77612 -6.81177 -6.37281 
1291 1 -5.96802 -6.38884 -6.20822 
3477 2 -4.60565 -6.64579 -5.98748 
1117 1 -5.53947 -6.9343 -6.69103 
1020 1 -4.61188 -5.72738 -6.91297 
427 1 -3.73595 -6.82268 -6.59782 
2459 1 -3.63219 -6.04929 -7.15176 
2546 1 -4.55662 -6.79894 -7.03326 
2944 2 -2.65791 -6.57488 -6.46708 
3268 2 -2.57732 7.00005 -6.64752 
741 1 -1.71189 -6.97262 -7.14425 
2524 1 -1.6196 6.84576 -5.92253 
2018 1 -1.80729 -5.93383 -6.75956 
1333 1 0.516319 -6.31316 -6.62104 
1521 1 -0.6364 -6.76951 -5.96221 
1634 1 0.721046 7.00243 -6.7279 
3368 2 -0.445089 -6.52079 -7.07859 
1734 1 1.39346 -6.65842 -6.64331 
2623 1 2.19555 -6.32358 -6.71214 
2415 1 3.01537 -6.32943 -7.11773 
3442 2 3.32223 -5.87894 -6.05095 
546 1 2.17973 -7.11823 -6.49403 
3587 2 3.51956 -6.67218 -6.23117 
1415 1 4.28645 -5.38846 -6.24742 
1992 1 4.70729 -6.83741 -7.17354 
3208 2 5.6287 -6.22574 -6.83421 
2787 2 5.87467 -6.93677 -6.88512 
779 1 4.60228 -6.27164 -6.23211 
1312 1 6.18791 -6.0766 -5.70554 
274 1 6.86032 -6.17722 -6.30697 
302 1 6.61843 -6.89928 -5.87287 
695 1 -6.76298 -5.83843 -6.08517 
392 1 -5.91071 -5.38509 -6.32257 
2706 1 -6.60315 -4.75647 -5.89612 
1273 1 -5.05182 -5.0371 -6.63941 
1345 1 -5.48425 -5.99559 -6.72747 
52 1 -5.70082 -4.65671 -7.04366 
1654 1 -3.97279 -4.89632 -6.93597 
959 1 -3.80563 -6.11816 -6.14317 
843 1 -4.28992 -5.34102 -6.24985 
3574 2 -2.8488 -5.75564 -6.35054 
2981 2 -2.94773 -4.99381 -6.32652 
1730 1 -2.46839 -5.37868 6.79127 
3484 2 -0.746472 -4.88616 -6.86066 
386 1 -2.0571 -5.01173 -6.81499 
3019 2 -0.816355 -5.66023 7.1884 
2537 1 0.0629933 -5.51039 -6.26821 
2289 1 0.487807 -4.71886 -7.09565 
1689 1 0.0479122 -4.64432 -6.09899 
498 1 1.165 -5.7219 -6.38136 
774 1 0.95271 -5.00025 -6.39703 
2957 2 3.14774 -5.12875 -5.94327 
619 1 1.93544 -5.35149 -6.64212 
1088 1 2.74419 -5.35544 -6.88991 
248 1 3.67487 -5.46819 -7.09397 
144 1 4.15024 -4.69387 -6.84716 
2812 2 5.48031 -5.45256 -6.58084 
2015 1 6.05528 -5.08149 -5.58151 
1373 1 6.39153 -4.53586 -6.53737 
2437 1 6.5349 -5.46787 -6.85438 
1263 1 6.88494 -5.2607 -6.14504 
2106 1 -6.07449 -4.35552 -6.28834 
3029 2 -6.78673 -4.52714 -6.98221 
1640 1 -5.08623 -4.09837 -6.52932 
572 1 -5.70666 -3.35826 -6.33769 
1434 1 -4.79297 -3.22746 -6.24714 
1477 1 -4.25984 -4.52295 -5.92786 
3061 2 -3.09216 -4.17174 -6.13762 
2516 1 -3.17376 -3.65221 -7.17095 
3041 2 -3.40798 -3.36538 -5.82215 
2661 1 -4.05277 -3.992 -6.73238 
2083 1 -1.88621 -4.56442 -5.96325 
2549 1 -2.23897 -3.70481 -6.36811 
890 1 -2.746 -4.52679 6.8948 
2262 1 -2.1133 -4.23522 -7.05651 
2808 2 -0.996149 -4.04594 -6.83276 
658 1 0.0873037 -4.05325 -6.87198 
2453 1 -0.17014 -3.35901 -6.00929 
1837 1 0.602239 -3.87638 -6.23639 
701 1 1.69102 -3.48816 -5.22992 
3503 2 1.18406 -3.69264 7.08718 
628 1 1.53786 -4.31844 -6.26454 
1538 1 2.46023 -4.49785 -6.92846 
1418 1 2.68635 -3.60795 -6.95897 
329 1 1.80891 -3.33995 -6.65294 
847 1 4.2569 -3.94248 7.12713 
190 1 3.95561 -4.0076 -6.30654 
2256 1 3.28943 -4.50811 -6.96321 
3212 2 5.3228 -4.60021 -6.47761 
3266 2 4.97824 -3.97077 -6.3835 
1597 1 6.96315 -4.35866 -6.09215 
2975 2 7.18119 -3.80691 -7.06613 
2306 1 6.12621 -3.94974 -5.84434 
2101 1 6.16334 -3.62499 -6.67945 
2612 1 -6.20329 -2.88374 -6.63769 
2353 1 -6.82746 -2.76083 -5.91273 
2114 1 -6.2393 -2.13576 -6.30911 
1445 1 -5.35985 -2.59144 -6.31959 
2480 1 -4.51411 -2.25125 -6.7737 
2397 1 -3.33839 -2.70339 -7.06835 
2869 2 -3.60837 -2.62487 -6.04898 
2381 1 -4.08156 -3.20284 -6.91667 
743 1 -2.49866 -3.31846 -7.14432 
1800 1 -2.59769 -2.05304 -6.75103 
3332 2 -1.19327 -3.34303 -6.60879 
3234 2 -1.44607 -2.56247 -6.56768 
2709 1 0.451471 -3.00616 -6.42755 
2263 1 -0.537008 -1.7512 -6.6364 
1313 1 0.887366 -2.27618 -5.93252 
2631 1 1.2796 -3.07888 -5.98721 
2520 1 1.77362 -2.37737 -6.61385 
3347 2 1.0158 -2.91848 7.11993 
388 1 3.00517 -2.59788 -6.80004 
886 1 2.21419 -2.37827 7.01861 
2150 1 3.59363 -2.09169 -6.46562 
303 1 3.59511 -3.49865 -6.77474 
2645 1 3.85658 -2.64991 -7.06191 
2767 2 4.8568 -3.22014 -6.44094 
3550 2 4.63378 -2.53049 -6.25498 
2360 1 5.98421 -2.33752 -6.3533 
2721 1 5.88363 -2.90614 -7.05578 
2617 1 5.84627 -3.09453 -6.03008 
3126 2 7.0882 -3.04419 -6.99423 
3087 2 6.97468 -2.38049 -6.7662 
90 1 -6.56329 -1.53446 -7.05029 
385 1 -6.67664 -0.925201 -6.47052 
1927 1 -6.75047 -1.62058 -5.94989 
56 1 -5.95942 -0.909405 -5.87965 
2320 1 -4.94964 -0.793268 -6.00349 
41 1 -5.63435 -1.60819 -6.23421 
1446 1 -4.36038 -1.27502 -6.63911 
174 1 -3.60758 -1.77441 -6.80883 
667 1 -2.23471 -1.67994 7.00084 
1112 1 -2.82254 -1.29056 -6.67584 
3105 2 -1.54331 -1.74257 -6.22869 
3200 2 -1.61705 -0.932128 -6.00495 
250 1 0.0628382 -1.65782 -5.79417 
2804 2 0.742528 -2.11763 -7.03225 
607 1 -0.615795 -0.927337 -6.473 
3151 2 0.700864 -1.33739 -6.86114 
1859 1 1.44178 -1.69969 -5.97098 
2298 1 1.4599 -0.840045 -5.89682 
1034 1 2.58039 -1.67164 -6.44075 
1695 1 2.20326 -0.765749 -6.38447 
2407 1 2.92828 -0.545561 -6.24822 
309 1 4.02965 -1.76966 -7.09067 
2972 2 4.50743 -1.77857 -5.77571 
1085 1 3.36685 -1.39949 -6.41468 
1834 1 3.79608 -0.854735 -6.8673 
1362 1 4.69335 -1.36156 -7.08639 
346 1 5.60923 -1.39332 -5.99127 
148 1 5.38178 -0.904029 -6.72052 
2840 2 6.85428 -1.67822 -6.58578 
1185 1 -7.144 0.332274 -6.60139 
2605 1 -6.01085 -0.00441368 -5.79576 
3127 2 -5.73633 -0.490497 -6.9596 
3007 2 -5.89491 0.36783 -6.94548 
1224 1 -5.01103 0.315841 -6.21367 
1722 1 -3.52127 -0.777723 -6.48305 
2699 1 -4.50311 -0.315125 -6.75127 
433 1 -3.8726 0.0358868 -6.36922 
28 1 -2.36084 -0.426683 -6.77704 
343 1 -2.85954 0.0747073 -6.37598 
323 1 -1.457 -0.611534 -6.90754 
2013 1 -0.619707 -0.153465 -6.06305 
2796 2 -1.6924 -0.14465 -5.88574 
1828 1 -1.75834 0.23517 -7.0334 
2522 1 -0.939359 0.267877 -6.6358 
3088 2 0.555236 -0.557281 -6.63864 
3311 2 0.270658 0.338604 -6.65177 
2708 1 1.60689 -0.15891 -6.50544 
2600 1 1.33816 0.687037 -6.9143 
1524 1 2.25935 0.349046 -5.83757 
110 1 3.13901 0.575164 -6.03945 
2418 1 4.05485 0.509835 -6.72718 
478 1 4.53149 -0.238863 -6.91087 
366 1 4.64454 1.129 -6.40668 
1876 1 3.44874 -0.0857169 -6.6954 
970 1 5.12935 0.397469 -6.48896 
499 1 5.16951 0.652506 -5.7414 
2797 2 6.66607 -0.930677 -6.42458 
3135 2 6.30775 -0.179651 -6.306 
2151 1 -6.9987 0.901181 7.17539 
3140 2 -6.14034 1.26948 -6.59465 
2317 1 -7.15425 1.20441 -6.20494 
1335 1 -4.99087 1.15947 -6.87548 
668 1 -5.42842 1.03101 -5.86827 
408 1 -4.90385 1.87394 -5.86852 
1233 1 -4.2812 0.849181 -6.2346 
1238 1 -4.07367 1.56688 -6.17354 
83 1 -3.36933 0.799033 -6.16063 
2505 1 -2.27796 0.814594 -6.88043 
2275 1 -2.84833 1.47289 -6.60758 
994 1 -0.977167 1.62535 -5.67913 
1745 1 -1.16206 1.18927 -6.42097 
1619 1 -0.801081 1.93811 -6.92277 
2928 2 0.130545 1.06895 -6.44362 
3078 2 0.0871052 1.73161 -6.10605 
1057 1 1.19468 1.5899 -6.67774 
823 1 1.21665 0.645566 -6.08666 
2730 1 1.82164 1.28001 -5.86945 
2960 2 2.39788 0.512702 -7.09271 
3459 2 2.42718 1.47355 -6.88098 
312 1 3.55642 1.15985 -6.70069 
1176 1 4.1231 1.7435 -6.50609 
140 1 5.54705 0.66436 7.07385 
2276 1 5.48339 1.32493 -6.64155 
3038 2 6.22015 0.520516 -6.11763 
3060 2 6.27319 1.2347 -5.87973 
339 1 6.87519 2.02678 -6.71595 
2061 1 -7.15653 2.69207 -7.00097 
3465 2 -6.10875 2.05394 -6.524 
2736 2 -6.19045 2.86433 -6.61451 
1476 1 -4.92405 2.82084 -6.97652 
1232 1 -4.97055 1.98673 -6.75293 
1725 1 -4.99735 2.88389 -5.98765 
3093 2 -3.88715 2.5576 -7.0826 
395 1 -3.27166 2.07829 -6.20712 
1370 1 -1.93044 1.79345 -6.74981 
883 1 -2.58569 2.38302 -6.69811 
353 1 -3.23701 3.21779 -5.89989 
1517 1 -1.89251 2.86955 -6.43631 
920 1 -0.948216 2.80575 -6.83299 
1265 1 -1.39979 2.22035 -6.28778 
3444 2 -0.24316 2.47069 -6.11497 
686 1 0.319474 3.06683 -6.85014 
2813 2 -0.29022 3.32387 -5.8484 
371 1 0.985754 2.37984 -6.4386 
1877 1 0.284937 2.25343 7.14271 
3393 2 2.0761 2.25314 -6.55207 
1066 1 3.33177 2.17758 -6.32522 
1092 1 4.11762 2.66687 -6.30688 
703 1 4.08373 3.5238 -6.04502 
1113 1 3.15799 2.69729 -7.15135 
1883 1 5.39821 2.28727 -6.73457 
2327 1 5.03694 3.11839 -6.5614 
377 1 4.83127 2.02671 -6.13398 
805 1 6.67982 3.03338 -6.55678 
284 1 6.11494 2.32371 -7.03934 
292 1 7.09159 3.6763 -7.06837 
942 1 -6.4868 4.58114 -7.1372 
3238 2 -6.46676 3.68584 -6.38185 
539 1 -5.75337 4.0428 -7.14317 
2396 1 -5.15472 3.67505 -6.5897 
2783 2 -3.87886 3.4572 -6.77047 
3408 2 -4.19826 4.10476 -6.79494 
803 1 -3.1015 4.04076 -6.18464 
448 1 -2.36544 3.56867 -6.2447 
2563 1 -2.8867 3.14036 -6.80502 
101 1 -2.31497 4.66213 -6.00379 
912 1 -1.70559 4.04663 -5.99396 
1255 1 -1.05477 3.63532 -6.37872 
159 1 -1.37727 3.17517 -5.77067 
2304 1 0.264319 3.93174 -6.64938 
3378 2 -0.119541 4.0464 -5.53738 
175 1 0.742368 3.17794 -6.05245 
2285 1 0.817354 4.21481 -6.07671 
3417 2 2.05279 3.14866 -6.46481 
2092 1 3.22337 3.89254 -6.18236 
3478 2 1.86025 3.86818 -6.441 
899 1 3.23178 3.01275 -6.0881 
3551 2 4.09128 4.12766 -7.00413 
2314 1 3.09599 3.51332 -6.91316 
2765 2 4.20836 3.20696 -7.19452 
862 1 5.82652 3.35994 -6.73509 
16 1 5.30279 4.52633 -6.30738 
1068 1 4.91056 3.82643 -5.91326 
1200 1 6.61876 4.08577 -6.31405 
2142 1 7.13441 4.74308 -6.80123 
2594 1 -7.04105 5.67312 -7.05838 
522 1 -5.85253 5.00958 -6.89602 
1410 1 -6.04569 5.71927 -6.49555 
3411 2 -4.40232 4.83723 -6.49381 
3471 2 -4.63147 5.50201 -6.24689 
2342 1 -3.43618 5.6825 -6.37836 
1394 1 -2.95537 4.35026 -7.0259 
2832 2 -2.2097 5.55458 -6.94164 
2839 2 -2.03233 4.76223 -6.99381 
792 1 -0.934579 5.41168 -6.97309 
597 1 -1.17737 4.73083 -6.30457 
2635 1 -1.35549 6.06892 -6.29877 
623 1 -0.110403 4.89625 -6.60893 
1639 1 -0.306885 5.80756 -6.48867 
1940 1 0.533032 5.37813 -6.23677 
3466 2 1.85633 4.69599 -6.15776 
324 1 0.872537 4.84858 -6.75696 
1767 1 1.20485 5.93109 6.90464 
1338 1 3.06439 4.38351 6.90979 
96 1 2.8252 5.63194 -6.36906 
839 1 2.84202 4.67322 -6.56146 
3223 2 3.99492 4.78766 -6.62251 
3215 2 3.88666 5.4903 -6.822 
2711 1 5.2512 5.43652 -6.35945 
2530 1 6.19632 4.83627 -6.41391 
916 1 6.02766 5.68669 -6.13299 
213 1 6.93021 5.67252 -6.32031 
1727 1 6.89273 6.30159 -7.06144 
66 1 -6.84534 6.47651 -6.66611 
1697 1 -6.14485 6.98947 -6.27694 
3150 2 -4.94273 7.08523 -5.9344 
1490 1 -3.81971 6.07724 -7.10184 
3463 2 -4.65739 6.37926 -6.11256 
601 1 -3.64637 6.62541 -6.42994 
833 1 -4.23322 6.81715 -6.9984 
3454 2 -2.40877 6.27485 -6.68351 
1346 1 -1.3331 6.69012 -6.77572 
2268 1 -1.32363 6.0259 6.9751 
2630 1 -0.519937 6.67098 -6.08285 
2675 1 1.06471 6.09123 -6.78045 
401 1 0.401135 6.25086 -6.17672 
1905 1 1.69329 6.67459 -6.8479 
2492 1 2.18257 6.02902 -6.79374 
2379 1 2.57468 6.56416 -6.07552 
2431 1 2.91114 6.17377 7.0822 
2790 2 3.76672 6.2731 -6.56144 
3569 2 3.71107 6.99588 -6.4746 
2009 1 4.78219 6.97691 -6.54778 
639 1 5.46274 6.38548 -6.01449 
1311 1 4.76267 6.08356 -6.73549 
610 1 6.58747 6.61688 -6.25341 
3539 2 5.80271 6.63117 -7.03708 
1871 1 6.91081 -7.06333 -6.53757 
2905 2 5.95482 5.87012 7.17197 
1616 1 -6.03661 -6.1257 -5.43667 
3487 2 -7.07417 -6.61108 -5.08525 
2582 1 -5.76056 -7.05698 -5.50495 
3520 2 -4.98075 -6.04331 -5.55114 
1872 1 -5.51997 -6.58203 -4.77533 
1506 1 -3.97114 -6.57719 -5.12633 
1149 1 -3.52187 -5.82735 -5.14666 
197 1 -3.12321 -6.50698 -5.38846 
1435 1 -2.44962 7.18926 -5.37962 
245 1 -1.38794 -6.67887 -6.45052 
3322 2 -1.22129 -5.91814 -4.87192 
3594 2 -1.05334 -6.64069 -5.00129 
1107 1 0.0520985 -6.27865 -5.16102 
224 1 0.257043 -7.0661 -5.07936 
786 1 0.287726 -6.97903 -6.10125 
2978 2 1.19773 -6.48165 -5.51612 
2048 1 2.3646 -6.72754 -5.67366 
1945 1 2.62528 -6.27425 -4.94453 
811 1 1.83046 -6.8897 -4.75653 
798 1 3.58661 -6.77798 -4.95716 
1416 1 4.28811 -6.34774 -5.36569 
1211 1 3.47723 -5.84352 -4.97732 
1493 1 5.5692 -7.14738 -5.86124 
2574 1 5.17049 -6.40313 -5.72014 
3290 2 5.06723 -6.8284 -4.68709 
2825 2 4.87726 -6.18952 -4.25135 
1320 1 5.64496 -5.86398 -5.20359 
2828 2 7.14991 -5.8028 -4.94845 
1000 1 6.12729 -6.66604 -5.05764 
1361 1 -6.35692 -4.58062 -4.65393 
558 1 -6.36056 -5.29609 -5.40993 
1994 1 -5.6651 -5.13611 -4.48078 
1184 1 -5.21165 -5.83089 -4.41769 
3416 2 -5.2512 -5.27425 -5.5075 
3325 2 -5.35845 -4.51752 -5.49819 
977 1 -3.905 -5.29081 -5.56146 
2176 1 -4.39377 -5.77877 -4.73376 
1071 1 -4.50421 -4.93001 -4.77811 
1167 1 -1.87936 -6.5574 -5.74942 
1086 1 -2.53179 -5.91279 -5.25295 
579 1 -1.91951 -5.61952 -5.76531 
1356 1 -1.31564 -5.56148 -6.14074 
1836 1 -0.51283 -6.02316 -6.00365 
3480 2 -1.4595 -5.21419 -4.70475 
2368 1 -1.13934 -4.79846 -5.80027 
1747 1 -0.506851 -5.1258 -5.61723 
2038 1 -0.264924 -5.50786 -5.02381 
3128 2 0.982092 -5.66141 -5.46329 
2826 2 0.814462 -4.93126 -5.17185 
290 1 1.91622 -4.95163 -5.7476 
949 1 2.07661 -5.8204 -5.92234 
1385 1 2.34595 -5.33997 -5.05519 
1160 1 3.12293 -5.01193 -4.75831 
2469 1 4.22813 -5.44614 -5.08373 
2539 1 4.40829 -4.70353 -5.53753 
3340 2 4.82677 -5.41858 -4.13974 
589 1 4.92525 -5.48469 -5.64 
451 1 5.8725 -5.11071 -4.6489 
2500 1 5.41813 -4.62106 -5.26832 
3010 2 6.97515 -5.06085 -4.88203 
3080 2 6.65586 -4.19974 -4.97188 
2727 1 -6.46547 -3.58707 -6.18673 
1851 1 -6.61567 -3.92734 -5.39429 
2912 2 -5.46574 -3.78705 -5.21985 
1671 1 -4.39903 -3.99001 -4.70438 
1406 1 -3.66842 -4.46818 -5.14302 
1144 1 -3.01163 -5.08581 -5.01286 
1979 1 -3.51053 -3.55649 -4.75266 
477 1 -4.40246 -3.77792 -5.50669 
897 1 -2.36777 -4.92195 -5.35643 
594 1 -2.57356 -4.02349 -5.17153 
1127 1 -1.35106 -3.70336 -5.69131 
1380 1 -0.490895 -4.16704 -5.65611 
2768 2 0.397345 -3.38771 -5.12265 
3068 2 0.719318 -4.16113 -5.2079 
19 1 1.81222 -4.29144 -5.25894 
2933 2 2.82774 -4.36859 -5.8175 
3249 2 2.56381 -3.59733 -5.7311 
2558 1 2.52262 -4.37362 -4.72169 
2566 1 3.77776 -4.56193 -5.13782 
1215 1 3.26937 -3.2167 -5.02222 
153 1 3.78545 -3.7055 -5.48302 
1372 1 5.30727 -3.44168 -5.33654 
1595 1 5.57042 -4.33549 -4.42868 
452 1 4.6581 -3.81941 -5.40707 
2670 1 7.06606 -3.55945 -5.87128 
3173 2 6.35792 -3.47442 -4.82475 
1151 1 -7.11203 -2.9232 -5.15405 
2890 2 -6.0733 -2.50605 -5.20154 
2737 2 -5.67041 -3.10594 -5.32158 
1140 1 -4.54763 -2.98797 -4.84119 
1835 1 -4.57737 -2.72442 -5.51295 
262 1 -3.74249 -2.69278 -4.85496 
2844 2 -3.69243 -1.81951 -5.65035 
1738 1 -2.43214 -2.7909 -6.32354 
1087 1 -2.44437 -2.22555 -5.36783 
228 1 -2.71941 -2.99665 -4.98912 
484 1 -2.08533 -3.21106 -5.4785 
2105 1 -1.55685 -2.44908 -5.34631 
2260 1 -0.760351 -2.88747 -4.73161 
2439 1 -0.762845 -2.93596 -5.63328 
3227 2 0.269711 -2.61367 -5.03478 
632 1 -0.176724 -2.48325 -6.28321 
1967 1 2.01371 -2.60335 -4.41327 
1897 1 1.38192 -2.84627 -4.93725 
3014 2 2.59032 -2.74582 -5.8848 
2830 2 2.216 -2.22635 -5.43699 
656 1 3.33549 -2.02432 -5.64408 
40 1 3.70143 -3.03919 -5.9688 
850 1 4.51523 -2.05542 -4.82606 
27 1 3.80909 -2.50775 -5.08731 
1527 1 5.5896 -2.43544 -5.44925 
1322 1 4.39642 -3.04483 -5.09638 
1006 1 6.6391 -2.76623 -5.80781 
1369 1 -7.18695 -2.04672 -5.28512 
2858 2 6.4017 -2.66943 -4.65944 
2974 2 -5.90524 -1.68276 -5.10933 
2993 2 -6.26918 -0.986883 -4.90587 
817 1 -6.80165 -0.235049 -6.12762 
874 1 -4.90917 -2.01378 -5.92768 
521 1 -5.04154 -1.1314 -5.20163 
1392 1 -4.78591 -2.0934 -4.97235 
3543 2 -3.79791 -1.13466 -5.52385 
3256 2 -3.95366 -0.358711 -5.37648 
1928 1 -2.6737 -1.37967 -5.8797 
1474 1 -2.74905 -1.10841 -5.09735 
900 1 -2.68372 -0.473643 -5.80312 
400 1 -0.485388 -0.977543 -5.58321 
527 1 -0.683272 -1.88286 -5.45139 
460 1 -1.94798 -1.48103 -5.01046 
858 1 -1.07814 -1.17669 -4.95886 
3430 2 -0.0430306 -1.98828 -4.59158 
3354 2 0.0575158 -1.21663 -4.51645 
1489 1 0.285592 -0.526865 -5.49414 
308 1 1.1599 -1.94101 -4.96283 
922 1 0.7265 -1.35469 -5.39636 
75 1 1.16047 -1.00156 -4.803 
3356 2 2.2466 -1.435 -5.33227 
3557 2 2.20277 -0.669114 -4.96385 
130 1 3.23372 -0.68171 -4.64817 
1648 1 3.12328 -1.02215 -5.60815 
556 1 4.29506 -1.08506 -4.83001 
2995 2 4.31693 -1.05071 -5.9251 
734 1 5.31017 -1.678 -5.14092 
1788 1 5.05524 -0.810971 -5.15281 
802 1 6.34292 -1.51349 -5.64543 
1472 1 6.07659 -0.716761 -5.35253 
1207 1 7.06263 -1.03804 -5.46654 
2054 1 6.86135 -0.818412 -4.52622 
3267 2 -6.6356 -0.248035 -4.84205 
2641 1 -6.26038 1.5826 -5.48199 
1607 1 -6.39159 0.769481 -5.80786 
1001 1 -5.40988 0.019739 -5.26854 
3144 2 -4.27175 0.398549 -5.25493 
2939 2 -1.9369 0.566706 -5.84774 
2589 1 -1.85096 -0.503111 -4.8444 
2466 1 -2.76965 0.587574 -4.81846 
596 1 -3.12226 0.275616 -5.56292 
913 1 -2.81291 -0.339273 -5.0365 
1195 1 -0.826503 -0.0998686 -5.17308 
154 1 -0.0170497 0.396775 -5.51985 
2326 1 -0.932051 0.70993 -5.77716 
76 1 0.96557 -0.133128 -5.59811 
3449 2 1.84392 0.00483647 -5.0599 
1777 1 0.644622 0.666944 -4.24047 
1065 1 0.995478 -0.177808 -4.35319 
941 1 3.10398 0.070694 -5.28375 
3317 2 4.11336 -0.326264 -5.82205 
167 1 3.91846 -0.315439 -4.62833 
2380 1 5.3415 -0.498063 -5.95466 
2021 1 4.77121 0.086158 -4.79039 
194 1 4.99523 1.02747 -4.79496 
50 1 5.65736 0.114006 -5.2222 
1331 1 7.09294 0.121546 -5.72324 
34 1 6.59287 -0.134815 -4.97031 
2578 1 -7.10572 1.48928 -5.40872 
1514 1 -5.45564 1.68674 -5.01855 
2037 1 -5.65111 0.916826 -5.10072 
1353 1 -3.27507 1.317 -5.44052 
2861 2 -4.32466 1.09722 -5.0062 
3062 2 -4.25864 1.98747 -4.92253 
2846 2 -2.30548 1.22135 -5.73718 
1367 1 -3.1963 1.44291 -4.57391 
2508 1 -1.21739 0.729407 -4.85849 
1623 1 -1.3647 1.76667 -4.68483 
1971 1 -0.111706 1.19735 -5.24908 
2542 1 -0.508359 1.89272 -5.06396 
1978 1 0.556753 2.15322 -5.17097 
867 1 0.724126 0.652468 -5.26385 
583 1 0.973165 1.46399 -5.6237 
3443 2 1.75569 1.40937 -4.6991 
3383 2 1.7883 0.695536 -4.6936 
785 1 2.75647 1.30688 -5.81816 
414 1 2.77622 0.982906 -5.05239 
925 1 2.71705 1.88994 -4.75063 
2848 2 4.21346 0.445913 -5.53295 
3364 2 3.97102 1.21464 -5.37421 
2068 1 5.13719 1.45168 -5.5276 
462 1 6.10792 1.76965 -4.86681 
1520 1 4.74655 1.90353 -4.42668 
1282 1 6.23084 0.82063 -4.97939 
723 1 7.03497 0.716828 -5.12485 
2597 1 -7.09557 2.17318 -6.0193 
115 1 -6.50957 2.37344 -5.47268 
2681 1 -5.84178 3.33451 -5.23436 
750 1 -5.49903 2.44682 -5.43176 
2383 1 -5.60271 2.52101 -4.59271 
1772 1 -4.08683 2.40287 -5.874 
2560 1 -3.2339 2.33875 -5.44448 
2845 2 -4.56697 2.62817 -4.85859 
822 1 -4.15394 3.16187 -5.83016 
3456 2 -4.63056 3.41202 -4.72849 
2490 1 -3.584 3.09076 -4.99451 
3117 2 -2.09843 1.90816 -5.45815 
2945 2 -2.18773 2.68398 -5.29447 
1661 1 -0.892089 2.69965 -5.29866 
1894 1 -1.4542 2.63986 -4.49381 
1993 1 -0.00982508 2.59728 -4.86727 
693 1 1.13971 2.50488 -5.48849 
84 1 2.01506 2.15117 -5.56403 
1368 1 1.73516 3.08691 -5.50871 
1677 1 2.76329 2.33019 -5.54633 
851 1 2.51689 3.01012 -5.07112 
3388 2 3.9008 2.09956 -5.31108 
3433 2 3.77209 2.9249 -5.08353 
2147 1 5.11806 2.12339 -5.0267 
795 1 4.79578 2.92413 -5.68268 
1229 1 7.04594 2.33692 -5.11767 
131 1 6.8598 3.21982 -4.83235 
3298 2 5.86606 3.02027 -5.63527 
3414 2 6.08425 2.20314 -5.88231 
2440 1 -6.60729 3.182 -5.25617 
1060 1 -6.73533 3.91301 -4.90894 
3045 2 -6.48552 4.34653 -5.96005 
1845 1 -5.43401 4.61181 -6.23455 
2297 1 -5.8818 4.28538 -5.19765 
35 1 -5.27234 3.66167 -5.82684 
59 1 -4.48601 4.06532 -5.72936 
1691 1 -3.74171 3.90816 -5.28654 
2045 1 -4.77356 4.67204 -5.38446 
992 1 -3.85044 4.46799 -4.60938 
2977 2 -2.38016 3.48622 -5.09427 
2865 2 -2.54277 4.28778 -4.97985 
1257 1 -1.18798 4.0028 -5.3406 
1296 1 -1.34621 3.45233 -4.67082 
287 1 -0.40154 3.33572 -4.75137 
2208 1 0.642595 3.16898 -5.04465 
1817 1 0.417302 4.42407 -4.83389 
620 1 -0.579467 4.25932 -4.39918 
2080 1 1.1194 3.82954 -5.39152 
673 1 2.02992 4.06803 -5.05751 
1848 1 2.65435 3.70115 -5.68133 
1923 1 2.42962 4.64992 -4.32813 
1515 1 4.30476 4.49747 -5.45158 
2894 2 3.61377 3.66836 -4.85169 
2814 2 3.42068 4.47406 -4.68953 
221 1 4.68636 3.72453 -5.05028 
2917 2 5.82052 3.70316 -5.30058 
2927 2 5.69795 4.66407 -5.22019 
2264 1 4.73635 4.44171 -4.63917 
2707 1 7.12948 3.14954 -5.88441 
1667 1 6.99235 3.93479 -5.58869 
1169 1 6.88343 4.50511 -4.86853 
29 1 -6.21567 5.76853 -4.87542 
3147 2 -6.76653 5.14992 -5.80421 
1341 1 -6.85713 4.86566 -4.60923 
829 1 -5.7431 5.08856 -4.92732 
491 1 -5.63582 5.44857 -5.71812 
507 1 -4.83259 5.77269 -5.20776 
223 1 -3.49433 4.69149 -5.57636 
2318 1 -4.06228 5.26341 -5.03483 
1481 1 -3.65378 5.70786 -5.53048 
138 1 -3.2246 4.93441 -6.34028 
1881 1 -2.73439 5.49649 -5.84436 
3458 2 -2.80013 4.99887 -4.80471 
1308 1 -1.72102 5.27698 -5.75598 
341 1 -1.57414 4.92959 -5.06745 
3392 2 -0.385353 4.80615 -5.60376 
225 1 0.556942 5.95179 -5.26815 
3207 2 -0.49071 5.51325 -5.32317 
1505 1 0.318555 5.14438 -4.56151 
3138 2 1.66556 5.49191 -6.04679 
1889 1 0.738113 4.9003 -5.55278 
1924 1 1.3757 4.67426 -5.03708 
586 1 1.37341 5.71542 -4.84031 
1261 1 2.68561 4.62403 -5.4868 
614 1 2.18377 5.25022 -4.96067 
696 1 2.74411 5.58634 -5.62233 
2305 1 3.44833 4.72767 -5.76511 
244 1 3.66826 5.5639 -5.4892 
2414 1 4.3745 5.24362 -4.92791 
2762 2 3.3721 5.40813 -4.42047 
2088 1 4.56201 5.38404 -5.83527 
1530 1 4.55447 6.25826 -5.74148 
3257 2 5.53974 5.3764 -5.04188 
2971 2 5.29681 6.1444 -4.88081 
1965 1 6.47207 5.75653 -5.44964 
1985 1 6.67145 4.77482 -5.67898 
13 1 6.88496 5.37298 -4.79976 
3330 2 -6.90822 6.23409 -5.58621 
2747 2 -6.8921 7.04876 -5.31288 
1399 1 -6.11134 6.82024 -4.70668 
587 1 -4.99923 7.09034 -4.89485 
297 1 -5.56423 6.33414 -5.04247 
233 1 -5.71935 6.31511 -5.81647 
1235 1 -3.86257 6.65055 -5.38477 
2033 1 -4.46388 6.46319 -4.80909 
1643 1 -3.53017 -7.12078 -5.7773 
1499 1 -2.02882 6.51972 -4.85822 
2988 2 -2.88647 5.74228 -4.64932 
1012 1 -2.99379 6.47223 -5.69505 
3265 2 -3.10723 6.42798 -4.55544 
3018 2 -0.774246 6.22273 -5.1005 
2446 1 -1.99622 6.07232 -5.62053 
345 1 -1.65822 5.69194 -4.91802 
3455 2 -0.972424 7.05332 -4.93348 
2096 1 0.163601 6.65816 -5.60415 
2831 2 1.53116 6.3452 -5.77272 
2899 2 1.3404 -7.17768 -5.60426 
2592 1 1.72627 6.55171 -4.45134 
799 1 2.84068 7.09833 -5.1547 
2669 1 2.2856 6.10148 -5.02134 
189 1 4.23724 6.17578 -4.97354 
709 1 4.0147 7.02538 -5.27538 
1935 1 3.29178 6.37641 -5.62115 
924 1 4.69465 -7.13031 -5.77035 
2926 2 5.34045 6.88822 -4.77371 
2703 1 6.31105 6.60859 -5.41271 
1584 1 6.57677 6.24712 -4.6078 
2191 1 -6.2997 -6.68831 -4.34881 
2533 1 6.87683 -6.49966 -4.07073 
2206 1 -6.77514 -6.79249 -3.69086 
3228 2 -5.61548 -6.84916 -3.5533 
3375 2 -5.70612 -6.0259 -3.50842 
1733 1 -4.286 -6.931 -3.3869 
246 1 -4.52197 -6.38167 -4.16792 
278 1 -4.33111 -7.03337 -4.64809 
3413 2 -3.36379 -6.44478 -4.19003 
2248 1 -4.56187 -5.77819 -3.49965 
2835 2 -3.20713 -7.15549 -4.46778 
1567 1 -2.20665 -6.60249 -4.76624 
1585 1 -2.65958 -6.76255 -3.46328 
1089 1 -1.43913 -6.50607 -3.824 
314 1 -2.13881 -6.06375 -3.60496 
2626 1 -0.401001 -6.49635 -4.21269 
1878 1 0.856903 -6.70305 -4.42132 
2238 1 1.7031 -5.89121 -4.68149 
1201 1 1.50773 -6.21734 -3.77166 
3303 2 2.51053 -6.93243 -3.94771 
2918 2 3.03348 -6.39076 -3.8512 
2136 1 3.86493 -6.24461 -4.30412 
1019 1 4.511 -5.93434 -3.26342 
168 1 3.79206 -5.93353 -3.20382 
1526 1 4.71602 -6.75983 -3.42141 
60 1 5.39407 6.31744 -3.4598 
281 1 5.36524 7.07094 -3.67013 
893 1 6.11105 -5.96247 -4.47213 
538 1 6.0404 -6.76519 -3.92207 
2462 1 -6.95106 -5.9147 -3.762 
2473 1 -6.23263 -5.84201 -4.50463 
316 1 -6.84953 -5.04172 -3.97418 
3286 2 -6.08066 -4.51783 -3.33247 
472 1 -4.86962 -5.15512 -3.96521 
2896 2 -5.95648 -5.30824 -3.36656 
3562 2 -3.53157 -5.75212 -3.94802 
3536 2 -3.73517 -5.02309 -4.13906 
2272 1 -4.80944 -4.98753 -3.02587 
2002 1 -2.33884 -5.88956 -4.40403 
520 1 -2.59515 -4.9987 -4.23482 
2102 1 -2.67245 -5.42209 -3.33253 
3285 2 -1.60193 -4.42302 -4.75307 
127 1 -1.45969 -5.53895 -3.54971 
1062 1 -0.73936 -6.03621 -3.52391 
2058 1 -0.417002 -4.75878 -4.75502 
2632 1 0.355148 -5.9565 -4.35187 
2052 1 -0.355538 -5.61451 -4.13953 
1611 1 1.7812 -4.77237 -4.56196 
15 1 0.432872 -4.96566 -4.11483 
1799 1 1.25051 -5.2812 -3.97771 
3379 2 2.6257 -5.75561 -3.83711 
3230 2 2.50507 -5.014 -3.6066 
1234 1 3.65779 -5.40695 -4.07555 
1425 1 4.00512 -4.95622 -3.19932 
3244 2 4.6006 -4.73011 -4.44328 
72 1 5.71222 -5.09504 -3.58507 
1461 1 6.70328 -5.57 -3.72648 
655 1 5.86003 -5.96408 -3.62152 
98 1 6.31309 -4.68405 -4.02338 
335 1 -6.91187 -4.0564 -4.00983 
1182 1 7.10342 -3.20661 -3.82135 
1551 1 -5.33639 -4.43338 -4.17759 
1449 1 -5.93217 -3.81324 -4.26045 
3376 2 -4.00392 -4.39415 -3.79239 
3083 2 -4.01475 -3.3772 -3.75797 
1629 1 -2.89155 -4.28271 -4.33007 
1285 1 -3.08305 -3.36164 -4.11624 
2044 1 -2.96339 -4.34249 -3.26253 
2916 2 -1.46571 -3.69903 -4.62259 
3198 2 -2.03943 -3.85175 -4.23052 
370 1 -0.771496 -4.01788 -3.9234 
543 1 -2.0918 -4.68342 -3.5949 
1552 1 0.282799 -3.96656 -4.22815 
842 1 -0.404045 -3.8321 -4.75374 
202 1 -0.594555 -4.9276 -3.92276 
1582 1 1.04609 -3.67398 -3.15407 
1683 1 1.05689 -4.42395 -4.05004 
1422 1 1.42522 -3.74182 -4.46527 
3320 2 1.88078 -3.4511 -3.65942 
566 1 2.43932 -3.50708 -4.63659 
3015 2 2.20495 -4.26758 -3.64257 
984 1 3.48592 -4.38174 -3.59225 
26 1 3.33051 -4.09582 -4.52262 
1575 1 3.06961 -3.43798 -3.85312 
3353 2 4.05938 -3.37504 -4.04821 
85 1 5.41579 -3.45484 -4.36143 
1364 1 4.59293 -4.50514 -3.17531 
2857 2 4.54883 -3.97441 -4.23798 
753 1 5.45155 -4.26744 -3.55769 
1961 1 5.04017 -3.68436 -3.21508 
1031 1 6.34746 -3.70622 -3.79016 
844 1 6.88564 -4.52349 -3.44852 
318 1 -6.69562 -3.46003 -4.62799 
2132 1 -6.89153 -2.44721 -4.15476 
2674 1 -5.23938 -2.58733 -4.29483 
935 1 -6.14874 -2.93995 -4.14303 
523 1 -5.11678 -3.47379 -4.23837 
2375 1 -5.39137 -3.04693 -3.48867 
3229 2 -4.22827 -2.53417 -3.79059 
3447 2 -4.40955 -1.87061 -3.45589 
2511 1 -3.28281 -2.55244 -3.86721 
2766 2 -1.83298 -3.07103 -4.27814 
1028 1 -0.898102 -2.89776 -3.78561 
1846 1 -0.0953772 -3.05906 -3.86177 
749 1 0.450146 -2.22276 -3.67406 
541 1 0.732386 -2.8285 -3.05705 
502 1 0.803373 -3.20633 -4.0332 
1644 1 1.10521 -2.27054 -4.21922 
2901 2 2.02807 -2.82239 -3.37668 
1653 1 2.88201 -2.70988 -4.5086 
1911 1 2.63172 -1.79904 -4.31749 
169 1 2.97663 -2.47407 -3.74065 
3134 2 3.99902 -2.63004 -3.89418 
1226 1 5.14744 -2.56114 -4.58838 
2299 1 5.37805 -2.87851 -3.73067 
1354 1 7.0414 -1.90398 -3.62705 
3116 2 6.29175 -1.98807 -4.44397 
1483 1 -7.00093 -1.61014 -4.49212 
1078 1 6.9902 -0.900149 -3.64327 
2126 1 -6.07279 -1.96056 -4.05416 
670 1 -5.53612 -0.645567 -3.98943 
1316 1 -5.26679 -1.48075 -4.20578 
2465 1 -3.39657 -1.23163 -4.25691 
1910 1 -4.35178 -1.02207 -4.58346 
2302 1 -3.95079 -1.88198 -4.68809 
3470 2 -4.41612 -0.998985 -3.34456 
2278 1 -3.2485 -1.73515 -3.49371 
1953 1 -3.13897 -2.15894 -4.59624 
2748 2 -2.21464 -2.43431 -4.12702 
2789 2 -2.3771 -1.68196 -3.99373 
1216 1 -2.56305 -2.0496 -2.90328 
2139 1 -1.18129 -2.07276 -4.56167 
393 1 -1.11031 -1.31274 -4.05447 
1491 1 -0.397572 -1.34599 -3.52018 
1931 1 -1.34891 -1.92159 -3.51529 
1239 1 -0.495246 -2.1998 -3.55236 
876 1 0.161225 -0.67319 -3.20789 
1237 1 1.6934 -1.45253 -4.27028 
2411 1 0.797215 -1.34089 -3.90005 
665 1 2.6086 -0.943784 -4.03294 
891 1 3.45843 -1.60777 -4.81499 
1300 1 2.796 -1.61173 -3.31145 
2914 2 3.88062 -1.90444 -3.73959 
3483 2 3.69944 -1.09524 -3.77008 
1340 1 4.96353 -1.67836 -4.20433 
873 1 4.67563 -0.624843 -4.06239 
721 1 4.89464 -1.38819 -3.35415 
1325 1 6.28903 -1.2877 -3.23961 
2856 2 5.89699 -1.23088 -4.392 
3186 2 -6.30337 0.348416 -4.5973 
1343 1 -6.45973 -0.884991 -3.89808 
493 1 -6.89026 0.413556 -3.58413 
1999 1 -6.20911 -0.114602 -3.61731 
1781 1 -5.09575 -0.404846 -4.66678 
1790 1 -5.29219 0.381465 -4.15797 
697 1 -4.28718 -0.284564 -4.21612 
2108 1 -3.39796 -0.256408 -4.37894 
412 1 -3.4679 -0.756748 -3.39182 
1815 1 -3.85062 0.190297 -3.33379 
3490 2 -2.37418 -0.821683 -3.86238 
3588 2 -2.57811 0.0853028 -3.6775 
640 1 -1.87772 0.348502 -4.49584 
969 1 -1.21691 -0.250145 -4.1923 
954 1 -1.5472 0.212182 -3.48943 
3585 2 -0.107488 -0.349618 -4.49692 
3500 2 -0.429081 0.44992 -4.35753 
1375 1 0.333315 0.395683 -3.46288 
2712 1 1.64063 -0.648676 -3.97343 
2237 1 0.792559 -0.475553 -3.66671 
840 1 1.51738 0.509096 -3.76491 
482 1 2.79731 0.263471 -4.41259 
2637 1 2.43926 -0.219534 -3.79783 
1830 1 4.77057 0.279218 -3.84916 
3305 2 3.63262 -0.40864 -3.47016 
3394 2 3.81023 0.283156 -3.46875 
613 1 3.55304 0.371392 -4.46613 
2819 2 5.93851 0.112527 -4.09316 
1672 1 5.31218 0.459681 -2.97563 
2584 1 6.97875 -0.146955 -4.02094 
2902 2 5.67008 -0.578889 -4.19162 
3263 2 -6.51717 1.15063 -4.45504 
3260 2 -6.50398 1.98303 -4.27258 
928 1 -5.77858 1.1902 -3.63925 
1095 1 -5.48015 1.92778 -3.80223 
2010 1 -5.15379 1.37715 -4.36093 
2448 1 -4.59967 1.61505 -3.84092 
731 1 -4.46124 0.777591 -3.99324 
2436 1 -3.5943 0.612786 -4.22763 
1512 1 -3.82242 1.58759 -3.95223 
1809 1 -3.88622 1.0101 -3.1475 
3120 2 -2.80419 0.770281 -3.44382 
1198 1 -2.15794 1.16924 -4.60858 
1812 1 -1.57962 1.09245 -3.94434 
3555 2 -0.499993 1.16336 -4.00956 
1484 1 -1.5556 2.05049 -3.49859 
603 1 0.449413 1.484 -4.61589 
1432 1 0.420893 1.5905 -3.28765 
2187 1 1.01058 1.25523 -3.74859 
2174 1 2.18933 1.0352 -3.15584 
2575 1 1.69664 1.68476 -3.41186 
2135 1 2.43048 1.62447 -3.77994 
295 1 2.57204 0.903744 -4.0346 
2028 1 3.4468 1.41671 -4.39462 
504 1 4.3888 0.939247 -4.23069 
234 1 4.26066 1.63582 -3.70658 
1328 1 4.75696 1.26341 -3.05896 
2908 2 3.6101 1.01629 -3.17572 
3369 2 5.59548 1.71675 -3.73825 
3209 2 5.72508 0.963508 -4.03872 
253 1 6.64459 1.6132 -4.16651 
1807 1 7.00354 1.81027 -3.41092 
1684 1 6.90742 0.648064 -4.24456 
3033 2 -6.73981 2.66233 -4.15229 
3021 2 -6.89196 3.38086 -3.913 
1880 1 -5.42484 2.94779 -3.72932 
1793 1 -5.7937 3.36954 -4.30467 
978 1 -4.56734 3.35482 -3.16612 
1148 1 -4.54164 2.52882 -3.60491 
1336 1 -3.67311 2.50154 -3.96805 
2395 1 -2.93106 2.34011 -4.51858 
1986 1 -2.872 3.13052 -4.01011 
1531 1 -2.10916 1.97833 -4.24192 
2950 2 -0.526245 2.03989 -3.97738 
330 1 -2.03755 3.13966 -4.02403 
1706 1 -2.06015 3.13743 -3.05919 
2673 1 0.412077 2.4511 -3.99866 
3196 2 -0.654866 2.77808 -3.71298 
14 1 1.00323 2.38873 -3.27871 
46 1 0.447074 3.16394 -3.52492 
3241 2 1.49532 2.01652 -4.38965 
3063 2 1.51083 2.8017 -4.39552 