ITEM: TIMESTEP
6000
ITEM: NUMBER OF ATOMS
3594
ITEM: BOX BOUNDS pp pp pp
-7.2094169127731975e+00 7.2094169127731975e+00
-7.2094169127731975e+00 7.2094169127731975e+00
-7.2094169127731975e+00 7.2094169127731975e+00
ITEM: ATOMS id type x y z 
2727 1 7.1608 -6.25679 -6.44034 
1599 1 -5.96217 -6.25856 -6.63017 
1718 1 -5.76312 7.11471 -6.85296 
3477 2 -4.82992 -7.18105 -6.14845 
196 1 -5.046 -5.74644 -6.74645 
1071 1 -3.81223 -6.76456 -6.00314 
606 1 -3.47611 -6.33386 6.89961 
1619 1 -3.06582 6.92314 6.60685 
3454 2 -2.82689 -6.51735 -6.54104 
20 1 -1.2632 -6.97205 -6.48314 
2619 1 -1.68086 -6.43014 6.8274 
2491 1 -0.603249 -6.75425 -6.0038 
2265 1 0.189913 -6.52911 -6.28134 
2038 1 0.152828 -7.05025 -5.55702 
3368 2 -0.751184 -5.85154 -6.95058 
40 1 1.71006 -6.91618 -6.44988 
1905 1 0.860953 -6.57317 -6.75865 
480 1 2.53528 -6.35605 -6.82944 
1100 1 3.83273 -7.20288 6.86052 
2957 2 3.03033 -4.89795 -5.78182 
579 1 2.22404 -6.13491 -5.77804 
3442 2 3.30364 -5.71877 -5.88222 
2623 1 4.51215 -6.14581 -6.32638 
3208 2 5.4799 -6.09806 -6.74231 
2787 2 5.66936 -6.92224 -6.95323 
1258 1 6.63678 -6.32312 -7.06043 
1610 1 6.86813 -6.49986 6.20662 
2521 1 -5.87891 -4.46462 6.90997 
1954 1 7.1753 -5.25008 -5.89545 
3029 2 -6.87209 -4.15318 -6.85245 
3366 2 -6.74282 -5.61332 7.07833 
1654 1 -5.42507 -4.92303 -6.82019 
1282 1 -5.69423 -5.88089 6.95328 
1671 1 -4.10645 -6.03032 -6.85499 
2114 1 -3.62379 -5.36759 -7.10481 
3268 2 -3.05874 -5.65597 -6.25483 
2944 2 -2.99072 -4.77347 -6.18831 
448 1 -1.84662 -4.67276 -5.94118 
1143 1 -1.90074 -5.3526 -6.40573 
3019 2 -1.01794 -5.10121 -6.91926 
1702 1 -1.53194 -6.14195 -5.86281 
3484 2 -0.753934 -4.28411 -6.54818 
995 1 -0.754936 -4.42762 -5.4223 
1966 1 0.0729439 -5.29302 -6.46178 
1767 1 1.29906 -5.92637 -6.45587 
1582 1 0.228246 -4.61147 -6.8886 
2113 1 2.11858 -5.49731 -6.38931 
2298 1 1.17199 -5.04506 -6.37661 
891 1 1.81956 -4.37656 -5.19236 
2492 1 2.84135 -5.50459 6.8255 
799 1 3.19444 -5.59771 -6.88108 
2933 2 2.96288 -4.13891 -5.73794 
1373 1 4.15261 -5.15108 -6.27917 
2287 1 3.61031 -6.46469 -7.1635 
1215 1 3.85434 -4.90141 -7.02159 
2306 1 4.22328 -4.34706 -6.08456 
2812 2 5.2399 -5.37612 -6.50059 
3212 2 5.34045 -4.57649 -6.41631 
558 1 -6.07332 -5.33421 -6.4035 
284 1 6.4931 -4.47215 -6.63985 
2686 1 6.576 -5.66777 -6.48021 
66 1 6.25376 -6.29595 -5.9427 
1291 1 6.56679 -5.64263 6.74864 
2975 2 -7.08939 -3.3273 -6.79713 
1459 1 -6.50812 -4.88052 -5.51247 
802 1 6.93911 -4.18329 -5.81353 
1437 1 -6.27375 -3.68157 -5.93752 
477 1 -5.18885 -4.10031 -6.5781 
1918 1 -5.07073 -3.22089 -6.27146 
1280 1 -4.0075 -4.39267 -6.62365 
1001 1 -4.4257 -3.70929 -6.20171 
2139 1 -2.21675 -3.27811 -6.5856 
3574 2 -3.16751 -4.04608 -5.98201 
2238 1 -2.36848 -4.75344 -7.07323 
2808 2 -0.861785 -3.49081 -6.34514 
685 1 0.181408 -3.63014 -6.86708 
2589 1 0.113881 -4.04736 6.72478 
886 1 1.11135 -3.83132 -5.90422 
3158 2 1.07224 -2.9621 -7.09972 
2048 1 2.51478 -4.86437 -6.94047 
502 1 2.33058 -3.83361 -6.56637 
1770 1 3.09732 -3.27627 -6.83278 
19 1 3.16 -4.36455 -6.81289 
1471 1 4.57138 -4.42109 7.19591 
85 1 3.95778 -3.10299 -6.10567 
3266 2 5.17885 -3.87653 -6.08282 
2068 1 6.1793 -3.72847 -6.54047 
1830 1 6.38731 -2.97354 -5.87043 
452 1 -6.16959 -2.73136 -7.15404 
3126 2 7.15099 -2.4122 -6.67248 
2641 1 -5.45774 -2.37158 -6.01031 
2042 1 -4.54386 -2.64168 -6.1504 
2699 1 -5.62524 -1.29603 -5.83452 
3360 2 -5.32569 -1.96161 -7.20335 
1445 1 -4.12338 -3.26087 -6.83058 
83 1 -3.90221 -2.35625 -6.78362 
911 1 -2.35624 -2.56182 -6.06418 
493 1 -2.75949 -2.19523 -6.75113 
2627 1 -1.86576 -4.17169 -6.80493 
1315 1 -1.9361 -2.73004 -7.07789 
1434 1 -1.69864 -3.53086 6.99572 
3332 2 -1.28491 -2.8535 -6.28425 
3234 2 -1.38657 -2.01612 -6.26098 
2368 1 0.386873 -3.27869 -6.19044 
1601 1 -0.183209 -2.73795 -6.99726 
1425 1 1.33046 -3.04116 -5.83896 
1738 1 1.92994 -3.65577 -5.62567 
3503 2 0.797774 -2.25649 -6.88162 
1837 1 2.55148 -2.1914 -6.67606 
1976 1 3.48345 -2.33874 -6.30315 
72 1 1.66553 -1.93107 -6.06883 
2407 1 3.95541 -2.84597 -6.82672 
538 1 3.86492 -3.92491 -6.72348 
2220 1 4.3444 -2.18022 6.52087 
2767 2 5.14234 -3.10531 -6.27884 
3550 2 5.0024 -2.48294 -6.01807 
377 1 6.154 -2.76197 -6.71996 
3087 2 7.03643 -1.66411 -6.69256 
1493 1 5.80037 -2.67394 -5.38838 
1496 1 -6.13666 -2.10083 -6.60997 
2151 1 -6.48584 0.270467 -5.81712 
3097 2 -5.43237 -1.25246 -7.06478 
499 1 -4.35829 -1.56448 -6.70484 
1986 1 -3.63936 -0.559632 -6.57929 
1669 1 -3.51024 0.534377 -6.3747 
2077 1 -3.37569 -1.50885 -6.63964 
2490 1 -2.53015 -0.944263 -6.51622 
1094 1 -1.79167 -1.29574 6.42063 
1353 1 -0.830539 -0.563435 -7.01561 
3105 2 -1.45582 -1.1947 -6.0526 
1993 1 -1.27611 -1.22552 -7.19037 
3200 2 -1.61452 -0.426868 -6.01787 
2591 1 -0.545985 -1.6228 7.13443 
1057 1 -0.317025 -1.15261 -6.44503 
2480 1 -0.1243 -0.817801 7.04708 
3347 2 0.744631 -1.5108 -6.72354 
2804 2 0.693008 -0.654704 -6.66812 
1462 1 2.08363 -2.85494 -6.25005 
925 1 2.58989 -0.607935 -6.17546 
2500 1 2.20411 -1.30742 -6.33867 
1695 1 3.07651 -1.49328 -6.27421 
1168 1 3.87116 -1.76939 -6.67881 
2670 1 5.38879 -1.69711 -6.83243 
110 1 6.24112 -2.08532 -5.98495 
366 1 4.46881 -2.30519 -7.15327 
1895 1 4.62074 -1.20412 -6.94248 
2414 1 6.00635 -0.329809 7.24947 
2840 2 6.89393 -0.978079 -6.30026 
2797 2 6.74029 -0.155237 -6.34923 
1340 1 -7.05957 1.02588 -6.34205 
2477 1 -6.64807 0.0711708 -6.61084 
3127 2 -5.57003 -0.429942 -6.95038 
3007 2 -5.4856 0.46212 -6.66788 
1474 1 -4.56427 1.08934 -6.76441 
304 1 -4.94941 -0.560246 -6.1476 
2677 1 -4.01174 1.21413 -6.04276 
1841 1 -4.28688 0.082793 -6.55268 
1457 1 -1.95941 -0.606211 7.09544 
882 1 -2.90381 0.394137 -5.74506 
1933 1 -2.55539 0.216484 -6.71595 
395 1 -1.50922 0.166014 -7.07211 
2708 1 -0.757829 1.50338 -5.78333 
3151 2 0.471672 0.0861451 -6.51211 
1238 1 -0.832416 0.816918 -6.51345 
3088 2 0.246654 0.820185 -6.37824 
1116 1 -0.57168 -0.171649 -6.28833 
769 1 1.24163 0.918299 -6.55709 
1859 1 1.74934 -0.508233 -7.07685 
3195 2 2.85231 -0.573322 7.18041 
2960 2 2.85603 0.166893 -7.04291 
1241 1 1.87583 0.260433 -6.19729 
2617 1 3.33965 -0.00637257 -6.08723 
455 1 4.26156 -0.358995 -6.84457 
2183 1 5.06028 -0.0750757 -6.81099 
2631 1 5.45877 -0.824696 -6.69607 
50 1 5.56069 0.63386 -6.94246 
3135 2 6.4244 0.596138 -6.086 
3038 2 6.17905 1.28582 -5.88493 
3465 2 -6.03086 1.9961 -6.2537 
263 1 7.13823 1.89162 -6.46344 
436 1 6.95706 0.85431 -7.03837 
1684 1 -6.86313 1.71705 -7.15199 
218 1 -5.04697 2.18726 -6.56079 
3140 2 -5.93656 1.23764 -6.4489 
1833 1 -4.39899 2.12365 -5.8379 
1264 1 -2.79614 1.06725 -6.35243 
580 1 -2.1347 0.737929 -7.17538 
2320 1 -2.46963 1.60516 -7.10968 
1523 1 -1.41931 1.25905 -6.90583 
1265 1 -0.593824 1.47902 -6.76643 
1932 1 -1.17478 2.06366 -6.24678 
3311 2 0.27693 1.62262 -6.04815 
2928 2 0.0313646 2.42867 -5.92736 
731 1 -0.170334 1.16019 6.95148 
2558 1 1.36556 1.8235 -6.47574 
175 1 1.24209 2.24554 -5.45398 
2276 1 2.39912 1.26521 -5.74674 
3459 2 2.39808 0.739469 -6.95068 
1286 1 3.7914 0.0669536 7.027 
178 1 3.94436 0.486621 -6.69759 
1625 1 3.30309 2.10542 -6.86163 
873 1 4.68207 1.01379 -6.51951 
2380 1 4.30085 1.88517 -6.22046 
2092 1 5.36595 2.21435 -6.54098 
1939 1 5.47616 1.43998 -6.96546 
1455 1 6.43307 1.60026 -7.01933 
2736 2 -6.33116 2.91201 -6.20071 
3238 2 -6.46171 3.78192 -6.13304 
1331 1 -6.84491 2.64888 7.22262 
2436 1 -5.10615 3.1238 -6.12412 
1584 1 -5.22699 2.24301 -5.55066 
718 1 -6.18316 4.24197 -7.03069 
3093 2 -3.81743 2.01645 -6.7903 
2783 2 -3.92318 2.75302 -6.78743 
337 1 -2.72395 2.12317 -6.36636 
902 1 -1.92448 2.09997 -6.59296 
2452 1 -0.768871 2.63446 -6.77004 
1230 1 -0.724398 3.63135 -6.8443 
1817 1 -0.197361 2.10818 -7.19468 
586 1 0.648411 2.13598 -6.97035 
3078 2 -0.119578 3.19768 -5.92853 
221 1 1.02285 2.53772 -6.29202 
1644 1 2.35401 3.09245 -5.367 
3393 2 2.35042 1.47168 -6.8142 
3417 2 2.26838 2.31465 -6.59107 
103 1 3.39737 2.91366 6.54917 
3478 2 2.16982 3.06487 -6.55576 
2765 2 4.44442 3.05418 -6.92898 
565 1 3.70718 2.597 -6.15419 
74 1 3.05069 1.89174 -5.88173 
1503 1 3.57095 2.11523 6.42865 
908 1 4.74455 2.54585 -5.48853 
2116 1 6.09085 2.40589 -6.91394 
1865 1 5.59694 3.22343 -7.02553 
1027 1 6.98312 3.64154 -5.57781 
1176 1 6.3884 3.29767 -6.72445 
2305 1 6.97934 2.76412 -6.47254 
1396 1 -7.01939 4.23294 6.83356 
3045 2 -6.48878 4.55944 -6.05598 
402 1 -5.42178 3.89482 -6.85409 
1415 1 -5.6497 4.91673 -7.0709 
3408 2 -4.10198 3.51025 -6.58778 
3411 2 -4.21074 4.31037 -6.59675 
732 1 -3.32228 4.26825 -5.79958 
2505 1 -2.04717 2.87855 -6.2541 
870 1 -2.70942 3.02341 -7.02887 
1224 1 -3.00019 3.66846 -6.39893 
883 1 -1.28455 4.32755 -6.32288 
1978 1 0.300075 2.98366 -6.89018 
894 1 0.113233 3.84987 -6.95261 
1346 1 0.726849 4.03792 -6.46251 
3466 2 1.98943 3.92285 -6.34176 
867 1 1.10176 3.29407 -6.36962 
1689 1 2.98707 4.19814 -6.6607 
371 1 3.29572 3.08007 -6.78128 
3551 2 3.99335 4.57834 -6.86105 
2377 1 5.4137 4.03061 -6.85269 
2025 1 4.34543 4.38768 -5.57217 
1422 1 3.58824 4.53406 -5.94771 
2009 1 7.03559 5.61578 -6.87925 
889 1 6.22912 4.22289 -6.49559 
1778 1 4.94853 3.89224 -6.12812 
365 1 7.003 4.75578 -6.63663 
762 1 -6.72481 4.97611 7.17653 
1594 1 -5.56503 4.68186 -6.23793 
691 1 -5.9662 5.58764 -6.7651 
1906 1 -4.94906 5.35235 7.03776 
2437 1 -5.35902 6.22128 -6.98935 
3463 2 -4.64176 5.78442 -6.25647 
3471 2 -4.53983 5.02251 -6.38549 
2275 1 -3.10103 5.88726 -5.98859 
1894 1 -2.20606 3.93367 -6.27521 
989 1 -3.51872 5.68639 -6.72683 
3306 2 -2.2071 5.60092 -6.88098 
285 1 -2.37275 4.8486 -6.11662 
3098 2 -2.11937 4.90849 -7.06951 
2322 1 -1.29705 5.28638 -6.23382 
1744 1 -0.277924 4.80126 -6.81151 
849 1 -0.528448 5.72532 -6.65272 
1567 1 0.287793 5.62934 -6.25921 
2630 1 0.406732 4.70628 -6.37287 
2000 1 1.2656 3.42368 -7.23159 
3138 2 1.78937 4.6339 -6.2547 
1685 1 1.11012 4.45943 -7.14108 
2831 2 1.62397 5.43158 -6.19721 
2379 1 1.37291 6.84033 -7.07433 
2256 1 2.80923 5.78829 -6.11134 
295 1 2.4321 5.65478 -6.98912 
1789 1 2.11762 4.92124 -7.11989 
3223 2 3.88476 5.55936 -6.7069 
2790 2 3.47587 6.48328 -6.70812 
2594 1 4.9576 5.54346 -6.82686 
686 1 5.63791 5.87185 -6.29209 
865 1 5.16335 4.77188 -6.47846 
2191 1 -7.17722 6.82643 -6.89539 
1927 1 6.03674 4.951 -6.20754 
1318 1 -6.12825 -6.88057 -5.69769 
1879 1 6.60784 -7.15356 7.10022 
2662 1 -6.73182 6.14792 -6.74303 
1060 1 -5.93383 6.54322 -6.30255 
1004 1 -3.63818 6.60769 -6.76564 
3150 2 -4.47606 6.50486 -6.06592 
360 1 -3.67504 -7.14204 7.13223 
2832 2 -2.60566 7.12577 -6.66313 
2839 2 -2.50381 6.3596 -6.72998 
1030 1 -1.58432 4.80023 -5.63076 
512 1 -0.4743 6.75282 -6.26397 
1623 1 -1.66217 6.06053 -5.90076 
2018 1 -1.22003 6.50226 -6.4395 
641 1 0.773532 5.27485 -6.89707 
1763 1 0.413009 6.3784 -6.02452 
2600 1 2.44996 7.20022 7.07818 
1088 1 0.646051 7.12431 -6.47937 
2899 2 1.41422 6.20614 -6.09035 
2462 1 2.18804 6.72888 -6.66898 
3587 2 3.51341 -6.45584 -6.00566 
3569 2 3.41097 -7.18108 -6.40138 
795 1 4.37764 7.00882 -5.67907 
115 1 5.3605 6.69894 -6.13598 
589 1 4.61793 -7.01599 -6.49607 
1295 1 4.45763 6.08021 -5.83961 
2136 1 6.06778 7.20356 -5.66644 
1148 1 6.57919 -6.90277 -6.35844 
3539 2 5.55432 6.8033 7.13733 
1772 1 -6.59006 -7.03144 -6.51751 
1490 1 -6.58946 -5.96046 -6.05062 
803 1 -5.03043 -6.97921 -4.99096 
2269 1 -6.23285 -5.71086 -5.09678 
3520 2 -5.17068 -6.34975 -5.9262 
2332 1 -5.53654 -5.80146 -4.54581 
897 1 -4.30751 -6.32324 -5.21756 
2496 1 -4.58047 -5.47383 -4.66135 
1652 1 -1.71132 7.11915 -5.78846 
1227 1 -3.30142 -6.26043 -5.37389 
977 1 -2.9632 7.13294 -5.65189 
1210 1 -1.19199 -5.09436 -5.69348 
3018 2 -1.3986 -5.86928 -4.63474 
3594 2 -1.47141 -5.06005 -4.71382 
204 1 -0.248375 -6.18091 -5.08374 
3128 2 1.29461 -6.73719 -5.50198 
1799 1 0.876482 -6.56825 -4.29622 
2826 2 0.719518 -6.07717 -5.46724 
2145 1 2.46496 -7.01539 -6.02118 
2712 1 2.61938 -5.51043 -4.98237 
1358 1 3.39444 -7.09858 -5.13501 
1175 1 2.50999 -6.71465 -5.01242 
440 1 4.34891 -6.60737 -5.39474 
224 1 3.22698 -6.05534 -4.72423 
281 1 3.97826 -5.43949 -4.98622 
10 1 5.42623 -6.81306 -5.81292 
3290 2 4.93149 -6.35808 -4.37443 
2051 1 4.77162 -5.81552 -5.49395 
1000 1 6.07291 -6.1183 -4.44751 
2828 2 7.18395 -6.20403 -5.21847 
2479 1 6.03339 -6.67508 -4.94079 
1526 1 5.3801 -6.16731 -5.31316 
1530 1 6.23895 -6.99017 -4.06692 
1013 1 -6.34747 -4.9085 -4.60917 
1994 1 -6.47125 -5.58766 -4.04821 
3416 2 -5.18481 -5.60353 -5.6037 
2912 2 -5.08972 -4.86796 -5.76442 
2388 1 -4.39604 -4.54358 -4.72545 
1784 1 -4.38954 -5.07476 -6.6026 
582 1 -4.20653 -5.97141 -6.05035 
2248 1 -3.54641 -4.45331 -4.97439 
2612 1 -3.85356 -5.40351 -5.25726 
1235 1 -2.29518 -6.66276 -5.448 
1691 1 -2.96624 -5.57465 -4.85578 
842 1 -0.178487 -4.85014 -5.79795 
3322 2 -1.58656 -4.28882 -4.37441 
687 1 -0.612702 -5.82789 -5.80284 
139 1 -0.379652 -5.14771 -4.86031 
3068 2 0.72442 -5.17871 -5.32645 
2656 1 1.8939 -6.16943 -4.877 
2178 1 1.76808 -5.39764 -5.35831 
1313 1 2.41849 -4.69755 -4.74886 
1160 1 3.23097 -4.94248 -4.47689 
1653 1 3.83832 -4.33478 -4.78227 
1075 1 4.24122 -3.6702 -5.3472 
628 1 4.33337 -4.82171 -5.39367 
1616 1 6.33899 -4.85664 -5.8339 
274 1 5.98493 -5.59196 -5.46597 
1320 1 5.81514 -4.26744 -4.23197 
3010 2 6.94807 -5.53715 -4.84666 
3080 2 6.99133 -4.78014 -4.62878 
1788 1 -7.08375 -3.17107 -5.64927 
1481 1 -5.73842 -4.24601 -4.13768 
3325 2 -5.37678 -4.3957 -5.18557 
2737 2 -5.42474 -3.56427 -5.17094 
172 1 -3.57394 -3.61596 -4.71159 
715 1 -4.01915 -4.74874 -5.79124 
647 1 -4.2875 -3.83846 -5.45027 
2981 2 -3.35809 -3.33885 -5.80606 
26 1 -2.21686 -5.56773 -5.52479 
1433 1 -2.10253 -3.64924 -5.85542 
1840 1 -1.28079 -3.73436 -5.27392 
1643 1 -1.8456 -2.83504 -5.23819 
851 1 -0.362304 -4.30396 -4.5495 
15 1 0.517369 -4.23017 -6.29736 
3227 2 0.896546 -3.69493 -4.79257 
1073 1 1.78203 -4.52491 -6.14475 
2768 2 0.746865 -4.32798 -5.11451 
250 1 1.3241 -4.26838 -4.06848 
1953 1 1.60134 -2.59827 -5.05927 
3249 2 2.99212 -3.299 -5.69981 
3014 2 2.72192 -2.50292 -5.43471 
126 1 5.02303 -4.21525 -5.05534 
879 1 3.04041 -3.89769 -4.5514 
541 1 3.68989 -3.26206 -4.91217 
2348 1 5.90332 -4.59396 -5.09233 
2530 1 6.05897 -3.6737 -5.58973 
659 1 -6.55842 -2.48347 -5.82075 
3173 2 6.85634 -4.03529 -4.67505 
2858 2 6.63099 -3.37154 -4.48205 
601 1 -5.98472 -3.01246 -6.34115 
1673 1 -6.50154 -3.89273 -5.1839 
2023 1 -6.52683 -2.97396 -4.97321 
1514 1 -4.82111 -1.73669 -6.08143 
2890 2 -5.6056 -2.57671 -5.12324 
2974 2 -5.89051 -1.88316 -4.92365 
1465 1 -4.37953 -3.05598 -5.24066 
1087 1 -4.0437 -2.27611 -4.69035 
2706 1 -3.28364 -2.62513 -4.47195 
3061 2 -3.46091 -2.61376 -5.71594 
1611 1 -2.62105 -3.35349 -4.93984 
2674 1 -3.32658 -1.08407 -3.85941 
2549 1 -2.65395 -2.39371 -4.89387 
954 1 -0.488921 -3.29315 -5.04866 
1864 1 -1.87658 -1.82573 -5.34505 
1984 1 -0.0148266 -3.8004 -5.56831 
3430 2 0.527921 -2.93699 -4.68253 
1618 1 1.37825 -1.4823 -5.01701 
84 1 1.19826 -0.693025 -4.67497 
2830 2 2.44969 -1.81554 -5.26157 
3356 2 2.48247 -1.08868 -4.94948 
1472 1 4.65639 -2.35781 -4.91387 
388 1 4.68618 -3.14522 -4.97841 
840 1 3.70925 -2.29298 -4.80878 
2084 1 4.06696 -2.6614 -5.58014 
1466 1 5.23553 -1.6707 -4.66576 
148 1 5.50421 -3.53464 -4.86837 
190 1 5.46185 -2.54567 -4.45512 
639 1 6.87891 -2.54746 -5.45401 
1385 1 5.88128 -1.68933 -5.17137 
2130 1 -6.40971 -1.61259 -5.93832 
1872 1 -7.11882 -1.77306 -5.49536 
806 1 -6.79168 -0.595139 -5.48011 
3267 2 -6.20141 -0.641422 -4.46932 
1301 1 -5.93231 -0.370988 -6.01434 
2578 1 -4.60694 -2.26321 -5.23501 
3041 2 -3.53315 -1.8261 -5.67488 
2869 2 -3.96248 -1.17776 -5.67426 
1815 1 -2.47503 -1.65047 -6.03159 
1581 1 -2.84928 -1.41907 -4.77328 
2030 1 -2.99819 -0.429895 -6.07028 
2601 1 -1.84915 -0.923664 -4.95883 
1890 1 -0.914182 -0.157097 -5.06717 
1484 1 -0.312238 -1.92682 -5.41851 
484 1 0.0928724 -2.67704 -5.72522 
1106 1 -0.234916 -2.09068 -6.39002 
2105 1 1.17765 -1.02377 -5.72538 
644 1 0.794442 -2.13173 -5.70282 
1940 1 0.469407 -1.41432 -5.56406 
971 1 0.77677 -0.314596 -5.26067 
3557 2 2.21156 -0.431506 -5.07295 
1698 1 3.7636 -0.943005 -6.50531 
2972 2 4.7061 -1.79236 -6.0524 
2995 2 4.64225 -1.07085 -5.63492 
1548 1 3.46594 -1.30748 -4.54693 
2150 1 3.77386 -1.65904 -5.48143 
153 1 5.89302 -1.30602 -6.11633 
1364 1 4.00083 -0.718277 -4.53494 
2223 1 4.97546 -0.908956 -4.31455 
1145 1 6.61647 -1.29972 -5.32363 
941 1 5.64241 -0.850427 -5.15863 
1138 1 7.04526 0.00401032 -5.2593 
698 1 6.9043 1.28695 -5.04517 
670 1 -4.9604 -1.39309 -5.12005 
857 1 -4.81299 0.262721 -5.88002 
720 1 -5.73198 0.265502 -5.44387 
2844 2 -4.02876 -0.414269 -5.42929 
3543 2 -3.90474 0.3598 -5.2444 
1790 1 -2.67451 -1.00283 -5.53099 
1268 1 -2.54643 -0.261598 -5.21759 
1971 1 -1.83771 -0.0169791 -4.78199 
855 1 -0.503751 0.540764 -5.64324 
1257 1 -1.1747 0.697867 -4.8688 
2796 2 -1.72517 0.23456 -5.82657 
2381 1 -0.0683085 -0.736285 -5.66291 
1380 1 -0.742066 -1.00182 -5.14224 
2605 1 1.78045 -0.590301 -6.08224 
75 1 0.156772 0.261617 -5.04981 
2231 1 1.17197 0.240576 -5.71219 
2535 1 2.82561 0.547978 -5.79863 
859 1 2.79149 1.44701 -4.80633 
3449 2 1.92549 0.280408 -4.80485 
3383 2 1.65699 1.03815 -4.67134 
2575 1 3.09319 0.357383 -5.00237 
3317 2 4.65995 -0.280113 -5.6995 
2848 2 4.26083 0.341733 -5.54676 
34 1 5.74864 -0.398732 -6.075 
1575 1 6.38036 -0.509785 -5.09866 
960 1 7.16772 -0.537555 -4.4157 
2423 1 -7.1059 1.91431 -5.51075 
1335 1 -6.78349 1.08307 -5.51433 
1369 1 -5.79792 1.12327 -5.25349 
2560 1 -6.36949 1.86836 -5.15517 
877 1 -4.91223 1.38356 -5.82846 
789 1 -5.40092 3.20367 -5.32734 
1551 1 -4.99058 0.775659 -5.12799 
24 1 -3.52215 2.49643 -5.67828 
3256 2 -4.09693 1.28701 -4.97104 
3144 2 -4.25884 2.16527 -4.7295 
668 1 -3.29867 1.62692 -5.72621 
2846 2 -2.10107 1.62342 -5.52711 
28 1 -1.19544 1.60047 -4.99014 
2939 2 -1.93451 0.902662 -5.85087 
1880 1 -1.56972 2.51818 -4.49825 
2037 1 -0.246375 1.34848 -5.22559 
42 1 0.723685 0.850497 -5.3956 
46 1 -1.20338 2.59395 -5.53346 
2647 1 -0.700164 2.29306 -5.01626 
549 1 0.476019 1.99788 -4.98075 
3443 2 1.67343 1.77926 -4.3837 
613 1 2.77864 2.0965 -3.94161 
2336 1 1.40097 1.35565 -5.7724 
850 1 3.22525 1.06269 -6.28996 
3364 2 3.99813 1.08542 -5.35902 
2352 1 5.27904 0.707711 -6.0281 
234 1 5.26784 1.00357 -5.26567 
140 1 4.96619 1.70879 -5.79516 
1200 1 6.57663 1.56087 -4.38842 
1402 1 5.75226 0.0803525 -5.24368 
2711 1 5.83697 1.66564 -4.66837 
3060 2 6.19863 2.05645 -5.69896 
577 1 -7.17249 2.85789 -5.49178 
13 1 -6.67602 3.57091 -5.00143 
1760 1 -6.08395 3.89554 -4.28391 
1169 1 6.97324 2.42885 -4.72459 
92 1 -6.51142 2.81086 -5.03832 
896 1 -5.81152 3.03617 -4.32509 
488 1 -4.36994 2.94666 -5.55417 
1454 1 -2.88422 2.90551 -6.2159 
408 1 -3.46099 3.2579 -5.26886 
2861 2 -4.45779 2.91181 -4.52336 
246 1 -2.94112 1.01466 -5.01804 
3117 2 -2.16393 2.25635 -5.25562 
2945 2 -2.38701 3.09335 -5.23393 
741 1 -1.31092 3.31438 -6.2208 
474 1 -1.31373 3.45263 -5.48648 
561 1 -1.67424 3.53536 -4.41798 
1132 1 -0.75175 3.1335 -4.89908 
3444 2 -0.326188 3.93214 -5.82952 
1375 1 0.129451 3.37407 -4.81259 
171 1 0.820598 3.03754 -5.29026 
1614 1 2.37988 3.78858 -4.23495 
785 1 3.01309 2.90351 -5.79193 
2707 1 2.61456 2.24338 -4.87389 
2271 1 2.12547 2.06365 -5.54375 
530 1 2.51807 2.95699 -4.45906 
3388 2 3.92965 1.84776 -5.14945 
3433 2 3.75882 2.55904 -4.96729 
1515 1 5.11401 2.94347 -6.08699 
779 1 5.10608 1.72895 -4.94584 
790 1 4.57564 3.04993 -4.14891 
2440 1 5.90365 2.41261 -4.44602 
3414 2 6.12443 2.81732 -5.58728 
3298 2 5.92291 3.55594 -5.63379 
2072 1 6.70181 3.53248 -4.7378 
2010 1 -6.19286 4.70964 -4.03227 
1697 1 -6.66594 4.3408 -4.8517 
2376 1 -4.79979 4.33606 -5.4027 
822 1 -5.78508 3.88584 -5.15671 
2690 1 -5.27295 3.91022 -5.95717 
2495 1 -3.949 4.7693 -4.92479 
2386 1 -4.01649 3.80747 -5.50506 
2977 2 -2.46424 3.82568 -5.13956 
1499 1 -1.36006 4.18122 -4.99695 
2208 1 -0.535425 4.0721 -4.74479 
301 1 0.448261 4.30972 -5.03373 
2813 2 -0.419552 4.64761 -5.5973 
3378 2 -0.554838 5.45495 -5.3786 
482 1 0.79542 3.81826 -5.60201 
2429 1 0.698626 5.03272 -5.64156 
1713 1 1.61974 3.06541 -5.51344 
1997 1 1.87939 3.78516 -5.02523 
268 1 2.67962 3.96156 -5.52323 
2894 2 3.72331 3.37998 -4.81568 
2703 1 4.74661 3.51959 -5.37643 
1066 1 4.11372 3.42987 -5.85833 
23 1 2.79818 4.97309 -5.61227 
81 1 5.22838 2.80221 -4.90393 
2917 2 5.67946 4.20007 -5.47153 
2927 2 5.44304 4.84872 -5.13906 
131 1 6.82591 4.39098 -5.72925 
1662 1 7.00785 4.45837 -4.78023 
3147 2 -6.76094 5.27715 -5.86814 
3330 2 -6.86235 6.06701 -5.72214 
120 1 -6.10078 6.03303 -5.05562 
833 1 -5.6081 5.67873 -5.8573 
297 1 -6.1803 5.11482 -4.6377 
2469 1 -5.68233 4.95203 -5.38354 
1991 1 -3.68815 3.90577 -4.71759 
2687 1 -3.36664 5.20668 -5.63532 
3458 2 -2.80456 5.30608 -4.69378 
1881 1 -1.79849 6.306 -4.96871 
2865 2 -2.52988 4.54794 -5.09117 
2626 1 -1.71937 5.3091 -4.92454 
3392 2 -0.526321 6.33172 -5.17931 
563 1 0.675965 5.77984 -5.15771 
597 1 0.215179 5.20404 -4.61916 
1639 1 1.26344 4.41074 -5.38963 
245 1 2.30425 5.78704 -5.40837 
862 1 2.55056 6.47308 -5.98143 
1051 1 2.51981 6.86838 -5.24661 
1709 1 2.21697 4.75334 -5.19969 
614 1 3.35129 3.75041 -5.98592 
665 1 3.63342 5.34964 -5.69477 
1513 1 4.12629 5.8663 -5.00022 
1390 1 4.57968 5.09349 -5.78031 
3257 2 5.29109 5.7461 -5.23481 
2971 2 5.22112 6.50649 -4.85579 
1263 1 6.50149 5.76374 -6.13316 
404 1 6.41962 6.63233 -6.46598 
1631 1 6.60112 5.17649 -5.4625 
3487 2 7.13651 -6.88054 -5.39322 
2747 2 -7.08172 6.80931 -5.68185 
2466 1 -5.48138 6.82137 -5.34001 
1255 1 -4.88461 6.11935 -4.99844 
658 1 -4.71266 -6.29349 -4.37052 
358 1 -3.92808 5.8852 -5.33014 
2200 1 -4.76381 5.15111 -5.29114 
1232 1 -3.62699 6.64344 -5.69979 
1665 1 -2.3916 6.56799 -5.62965 
1725 1 -2.13712 7.1553 -4.80809 
197 1 -2.28091 5.58834 -5.68262 
2988 2 -2.96116 6.13149 -4.69292 
3455 2 -1.18758 -6.57308 -4.99032 
3207 2 -0.851146 7.05309 -5.08671 
2564 1 0.536043 6.74052 -5.13965 
1486 1 1.16791 6.14205 -4.59077 
708 1 0.136355 -7.0266 -4.6407 
2978 2 1.37865 6.80466 -5.56477 
1196 1 1.57385 5.2149 -4.99925 
133 1 0.940352 6.87558 -4.29522 
2028 1 1.92525 6.27448 -4.93105 
2714 1 1.7378 -7.10538 -4.47398 
2370 1 4.09945 6.84121 -4.77314 
1019 1 3.41496 6.36516 -5.45903 
2926 2 5.07919 -7.24819 -4.67615 
462 1 6.17607 6.18546 -5.46221 
964 1 -5.95894 -6.56005 -4.93157 
2106 1 -6.97736 -6.03816 -3.4305 
2166 1 -6.63854 -6.8962 -3.64158 
3545 2 -5.36738 -6.19383 -3.40026 
361 1 -4.15731 -7.13655 -5.12356 
2849 2 -5.59169 -6.90432 -3.70588 
2835 2 -3.45621 -6.86375 -4.37564 
3413 2 -3.62065 -6.12971 -4.19746 
1555 1 -4.56877 -7.14733 -4.05474 
356 1 -2.29605 -6.37928 -4.51758 
1609 1 -3.51068 -6.34883 -3.04017 
1344 1 -2.38603 -5.55499 -4.06239 
2326 1 -1.54487 -6.69496 -3.8876 
534 1 -0.899179 -5.31472 -3.317 
2569 1 -1.72971 -5.77809 -3.62141 
1945 1 0.233757 -5.86476 -4.2687 
945 1 -0.341466 -6.61637 -4.12017 
3056 2 0.499083 -6.44633 -3.26339 
27 1 1.22134 -5.87251 -4.23393 
1300 1 1.50374 -6.63574 -3.60886 
893 1 1.65605 -5.6506 -3.44344 
3303 2 2.55543 -6.41877 -3.85172 
2918 2 2.49231 -5.6838 -3.81167 
1384 1 3.722 -5.79656 -4.03332 
317 1 5.36507 -6.15697 -2.43913 
2825 2 4.66605 -5.48403 -4.29615 
746 1 5.54389 -6.97556 -2.68974 
1667 1 5.66589 -6.20808 -3.62047 
1893 1 6.76113 -6.11444 -3.93192 
1312 1 -6.48293 -6.3276 -4.314 
1182 1 7.24278 -5.2607 -3.70261 
3228 2 -5.75959 -4.76608 -3.25204 
3469 2 -5.79215 -5.53995 -3.26416 
1733 1 -4.73624 -4.93196 -3.74495 
1730 1 -4.1982 -5.506 -2.78243 
138 1 -5.38972 -5.046 -4.3216 
1885 1 -4.49105 -5.77395 -3.54598 
1285 1 -4.93089 -5.36234 -2.47365 
3562 2 -3.57188 -5.3203 -3.98642 
458 1 -2.72899 -4.72247 -4.8844 
2033 1 -2.70528 -5.49399 -3.13516 
37 1 -1.50373 -3.88564 -3.01848 
1728 1 -1.78119 -4.7709 -3.3734 
1028 1 -0.610908 -4.66906 -3.84386 
1468 1 0.463328 -4.10821 -3.79981 
1836 1 -0.549103 -5.52977 -4.07622 
1810 1 0.469852 -4.99956 -4.10575 
1382 1 1.71551 -5.04443 -4.54452 
781 1 1.78304 -5.30904 -2.74157 
3379 2 2.54781 -4.94269 -3.5483 
3230 2 2.47671 -4.12029 -3.46638 
1062 1 3.71926 -4.61321 -3.93605 
168 1 3.41578 -3.8288 -3.69336 
3244 2 4.5673 -3.96084 -4.07271 
378 1 3.50989 -6.25501 -3.12573 
329 1 5.14923 -4.99645 -5.29996 
2552 1 5.69179 -4.63321 -3.44122 
3340 2 4.90019 -4.68565 -4.14133 
2162 1 6.15241 -5.30521 -3.62861 
2721 1 5.80375 -5.19357 -4.46399 
517 1 -6.63027 -4.59442 -3.83934 
3375 2 -5.76461 -3.97837 -3.00431 
1144 1 -5.16637 -3.51029 -3.63223 
2218 1 -4.67542 -4.04986 -4.11957 
525 1 -4.55283 -3.19448 -4.42995 
3536 2 -3.54682 -4.55999 -3.62049 
3376 2 -3.76332 -3.86856 -3.58865 
104 1 -2.80468 -3.99499 -4.43976 
2524 1 -2.17962 -4.1449 -5.26768 
2310 1 -2.55149 -4.69744 -4.07431 
3480 2 -1.42916 -3.53897 -4.30978 
984 1 -0.834915 -2.41388 -4.34349 
3285 2 -1.88197 -2.90111 -4.22859 
1431 1 -0.735962 -3.9828 -3.29396 
527 1 -0.258295 -3.5795 -4.03554 
1998 1 1.07893 -3.72305 -3.26088 
2102 1 1.2211 -5.07326 -3.76516 
1863 1 1.34416 -4.53903 -3.13342 
1946 1 2.06421 -3.94838 -4.3534 
2599 1 1.98492 -3.30896 -4.83546 
3320 2 2.34204 -3.38796 -3.24296 
797 1 3.24754 -2.90442 -3.74301 
2857 2 4.27843 -3.21899 -3.98603 
1034 1 5.46411 -3.40171 -3.96681 
2365 1 5.09541 -3.81216 -3.1611 
587 1 5.74324 -2.75615 -3.53817 
2288 1 -6.93461 -4.55941 -2.99855 
844 1 -7.13356 -3.88812 -3.53887 
2571 1 6.61415 -4.52653 -3.59075 
2109 1 6.22787 -3.81442 -3.61297 
1999 1 -6.59612 -3.83849 -4.22043 
90 1 -6.09218 -2.22597 -3.89205 
2350 1 -6.73522 -2.99011 -4.14564 
1542 1 -5.35351 -1.4852 -4.06792 
1627 1 -4.97694 -2.37036 -4.2939 
1325 1 -5.80996 -3.27315 -4.22551 
3229 2 -4.19346 -2.41915 -3.42843 
3083 2 -3.85535 -3.00714 -3.59471 
1979 1 -2.82946 -3.16786 -3.98645 
481 1 -3.02116 -1.62237 -2.90231 
128 1 -0.928173 -2.66343 -5.21019 
2237 1 -0.918022 -1.45265 -3.9487 
3198 2 -2.05466 -1.29048 -3.94261 
2916 2 -2.04377 -2.03094 -4.00841 
635 1 0.40574 -3.01817 -3.57085 
2020 1 -0.481842 -1.90077 -3.51611 
535 1 1.14215 -2.58301 -3.59846 
2182 1 1.55533 -3.29623 -4.00798 
2411 1 3.01508 -1.73781 -3.2419 
593 1 2.72241 -3.0548 -4.5377 
1239 1 3.08872 -2.21122 -4.23129 
3353 2 4.38031 -2.45607 -3.78404 
3134 2 4.12931 -1.77029 -3.62544 
423 1 5.34446 -1.98568 -3.6756 
1031 1 6.64149 -3.17969 -3.3312 
3116 2 6.55876 -2.70328 -4.47071 
2856 2 6.45034 -1.97259 -4.22103 
2993 2 -6.07046 -1.22651 -4.93905 
346 1 -6.86565 -2.17384 -4.56758 
2351 1 -6.93132 -1.65955 -3.90869 
2296 1 -6.02883 -1.44379 -3.45119 
2302 1 -5.4053 -0.528817 -4.02208 
56 1 -3.53965 -1.67737 -4.48268 
923 1 -4.49091 -1.46852 -4.51727 
1428 1 -4.85894 -0.678543 -4.50533 
1064 1 -3.1247 -1.77036 -3.75126 
572 1 -3.17087 -0.61506 -4.76651 
2748 2 -2.59756 -0.402022 -3.9779 
2766 2 -2.07293 -0.662768 -3.521 
2426 1 -1.11107 -1.64827 -4.83078 
871 1 -1.09821 -0.715746 -4.40047 
3354 2 0.160268 -2.02167 -4.52161 
247 1 -0.240798 -0.930344 -3.2506 
3585 2 0.240802 -1.17877 -4.58697 
692 1 0.655847 -0.653121 -3.34138 
349 1 1.94475 -2.5447 -4.26065 
236 1 0.872391 -1.27742 -3.84885 
2545 1 2.34116 -1.88449 -3.94022 
1119 1 2.87619 -1.12153 -3.9648 
2722 1 3.42081 -0.378822 -5.09459 
2914 2 3.88267 -1.07024 -3.52633 
985 1 3.44081 -0.835359 -5.76059 
2211 1 4.30222 -1.68553 -4.82122 
3483 2 3.62417 -0.293665 -3.21279 
2225 1 5.21721 -1.81111 -2.87228 
1664 1 4.57803 -0.936112 -2.66135 
2215 1 -7.13861 -2.44478 -3.52565 
1882 1 -7.16562 -1.30835 -4.82155 
2902 2 6.17448 -1.34356 -4.04197 
1720 1 6.97913 -1.5443 -3.19403 
319 1 -6.99409 -0.863092 -3.6586 
3186 2 -6.295 0.172826 -4.53541 
523 1 6.81022 1.10419 -3.79465 
1913 1 -6.34004 -0.0538151 -3.38644 
1835 1 -5.05812 -0.450353 -5.2924 
443 1 -5.19371 0.242979 -4.47974 
1446 1 -4.38119 0.161809 -4.11498 
2718 1 -3.43565 0.357142 -4.20885 
2789 2 -2.35427 0.297392 -3.5932 
2529 1 -2.81898 0.253548 -4.79434 
2241 1 -1.33794 0.220288 -3.917 
2395 1 -1.41596 0.186214 -2.79403 
2108 1 -1.53605 1.00983 -3.80944 
3500 2 -0.0324313 -0.419362 -4.2878 
3555 2 -0.147375 0.312321 -4.0457 
1432 1 0.863375 0.146716 -4.51568 
2489 1 0.460449 0.274845 -3.05346 
1531 1 1.27947 -0.298586 -3.78502 
188 1 3.1277 -0.195109 -4.16073 
1195 1 1.85415 0.782188 -3.48117 
583 1 2.84786 0.57438 -4.05949 
31 1 4.16475 0.0893571 -4.3043 
1299 1 4.6954 -0.16378 -3.68031 
1307 1 5.15489 -1.13239 -3.52575 
296 1 5.17565 -0.255547 -4.73743 
2147 1 4.62838 0.712259 -3.61004 
3209 2 5.77982 0.146257 -3.93731 
817 1 6.77252 0.519577 -4.66186 
2819 2 6.15065 -0.52661 -4.08273 
3263 2 -6.50744 0.956449 -4.40541 
3260 2 -6.74158 1.58833 -4.18105 
1572 1 -4.54142 1.0514 -3.99827 
1343 1 -5.45671 1.32077 -3.98618 
111 1 -4.58249 1.93672 -3.6685 
2278 1 -5.23583 1.70787 -4.68061 
978 1 -3.083 2.38338 -4.91915 
827 1 -3.72266 1.12431 -3.90439 
1607 1 -5.31778 2.29517 -3.84998 
400 1 -2.05094 0.774524 -4.68475 
1316 1 -2.78092 1.59856 -4.46808 
892 1 -1.87108 2.04272 -3.62203 
3196 2 -0.55553 1.74907 -3.85305 
683 1 -1.68323 1.60477 -4.38363 
2950 2 -0.323143 1.05029 -4.14305 
1374 1 0.584591 1.18464 -4.65357 
2406 1 0.959554 0.591501 -3.72481 
1700 1 1.02362 1.47548 -3.44664 
3241 2 1.47517 2.5771 -4.33288 
1501 1 2.45904 1.35896 -3.73131 
922 1 2.23725 -0.112405 -3.79272 
1185 1 3.68094 0.792164 -4.36886 
556 1 3.54613 1.68782 -4.01439 
1703 1 4.47645 1.42894 -4.25184 
1151 1 4.90129 0.702913 -4.6456 
3369 2 5.65501 0.913833 -3.75519 
2976 2 5.53346 1.63352 -3.52177 
2297 1 6.0092 0.758235 -4.83818 
1888 1 6.58815 2.1586 -3.7071 
3033 2 -6.85054 2.41877 -3.86904 
2751 2 -6.98931 3.15859 -3.82088 
2061 1 -4.82749 3.29394 -3.30971 
710 1 -5.69602 2.96373 -3.45462 
1063 1 -5.81228 2.34582 -4.72708 
2597 1 -3.85836 3.9258 -3.86028 
1483 1 -3.89732 3.25108 -3.61998 
1775 1 -1.93577 4.32938 -4.13625 
154 1 -3.39143 2.17658 -4.00504 
2563 1 -2.23219 3.13436 -3.92247 
1110 1 -2.41269 2.40309 -4.15187 
2860 2 -0.77325 2.55596 -3.67395 
441 1 0.237716 3.39408 -4.01581 
2442 1 0.19812 2.49847 -4.49151 
630 1 0.443054 3.05394 -3.24395 
3063 2 1.20596 3.33759 -4.23777 
1012 1 1.26908 2.56909 -3.2085 
620 1 2.28449 2.58576 -3.51826 
130 1 2.10658 3.31863 -3.43746 
970 1 3.26263 2.87668 -3.88767 
763 1 4.3771 2.45282 -3.02204 
2327 1 4.78662 2.19745 -4.43161 
2497 1 3.99731 2.27149 -3.75076 
496 1 4.3086 4.00953 -4.06431 