ITEM: TIMESTEP
9200
ITEM: NUMBER OF ATOMS
3594
ITEM: BOX BOUNDS pp pp pp
-7.1968054936961980e+00 7.1968054936961980e+00
-7.1968054936961980e+00 7.1968054936961980e+00
-7.1968054936961980e+00 7.1968054936961980e+00
ITEM: ATOMS id type x y z 
1148 1 -6.95002 -6.30941 -6.35696 
1772 1 -6.20097 -6.6927 -6.22308 
558 1 -6.17566 -5.74491 -6.32547 
2662 1 -6.83 6.9843 -6.59603 
3520 2 -5.01305 -6.75559 -5.90697 
1140 1 -4.59204 -7.07754 7.21678 
1282 1 -5.62728 -6.55216 -6.8057 
196 1 -4.69452 -6.24874 -6.91722 
897 1 -3.79203 -6.83629 -6.19327 
2122 1 -3.49445 -6.70046 7.05824 
2058 1 -3.80925 -6.20984 -6.71602 
3454 2 -2.70627 -6.19137 -6.31554 
2832 2 -2.63667 -7.07308 -6.50129 
2238 1 -1.56523 -6.62375 -6.87 
448 1 -1.00202 -6.28124 -5.82159 
3368 2 -0.511974 -6.33012 -7.03542 
2265 1 0.870784 -6.36336 -7.09336 
563 1 0.53315 -6.77459 -6.36616 
2415 1 1.5571 -6.78313 -6.59931 
2379 1 2.45943 -5.90543 -6.69304 
2145 1 2.32685 -6.79972 -6.10692 
2957 2 3.18628 -5.91446 -5.8994 
480 1 2.13612 -6.01518 -5.60427 
2590 1 2.58928 -6.87943 -7.10184 
3442 2 3.48385 -6.54684 -6.18875 
589 1 4.60698 -6.94687 -6.54554 
2623 1 3.9309 -5.43047 -6.8772 
1215 1 3.76408 -6.19226 7.03378 
3208 2 5.66945 -6.36111 -6.81503 
1879 1 6.75001 -6.83554 -6.62152 
1413 1 6.71201 -6.83199 6.78997 
585 1 6.42256 6.88763 -6.38862 
3495 2 -6.87986 -4.68635 -6.99678 
1437 1 -5.90668 -4.85729 -6.25013 
1784 1 -4.56354 -5.31432 -6.66243 
1654 1 -5.38763 -5.72444 -6.53884 
2912 2 -5.11723 -5.34584 -5.32036 
1071 1 -4.01024 -5.92026 -5.87542 
606 1 -3.7528 -5.42551 -6.52943 
3268 2 -2.83875 -5.46612 -6.18992 
2944 2 -3.07592 -4.63249 -6.12262 
2627 1 -1.58727 -5.8353 -6.53393 
3484 2 -0.625893 -4.72689 -6.76572 
1840 1 -2.1115 -4.09039 -5.96302 
386 1 -1.86946 -4.91828 -6.277 
1088 1 0.137406 -5.8248 -6.16124 
3019 2 -0.699826 -5.52275 -6.86968 
2589 1 0.802746 -5.53081 -6.57484 
579 1 1.41686 -5.95448 -6.26521 
502 1 1.92611 -5.25641 -6.20556 
2600 1 2.53457 -4.90547 -6.88618 
2933 2 3.23462 -5.13493 -5.84122 
628 1 4.21165 -5.0266 -6.18882 
1770 1 3.17368 -5.34477 -6.95654 
2812 2 5.41048 -5.57187 -6.61676 
3212 2 5.2796 -4.83227 -6.42245 
2686 1 6.45486 -5.1104 -6.74002 
1616 1 -7.01866 -5.43312 -5.97453 
1258 1 6.70867 -5.96638 -6.66113 
3029 2 -7.0892 -4.02043 -6.65327 
2015 1 -5.85401 -4.05816 -6.52623 
601 1 -5.09709 -4.7352 -6.39155 
1918 1 -4.98745 -3.92363 -6.09341 
1465 1 -4.32756 -4.35896 -6.66142 
1087 1 -4.29822 -3.52257 -6.55559 
1800 1 -3.57321 -3.06417 -7.01482 
3574 2 -3.38586 -4.01012 -5.96604 
2114 1 -3.3368 -3.8693 -7.10939 
909 1 -2.32289 -3.35354 -6.08098 
1392 1 -2.56075 -3.63374 -6.86366 
2187 1 -2.037 -3.07692 -7.10577 
2808 2 -0.932304 -3.95046 -6.58063 
685 1 0.243052 -4.14622 -7.1474 
1582 1 0.647918 -4.13151 -6.25815 
2048 1 1.08074 -4.69725 -6.45786 
3158 2 1.26485 -3.39267 -7.17089 
1767 1 2.36676 -4.25905 -6.56719 
1738 1 2.32975 -3.31919 -6.637 
19 1 3.3387 -4.28141 -6.73463 
1695 1 3.24161 -3.39752 -6.57192 
1976 1 4.005 -3.84845 -6.06527 
2407 1 4.18625 -4.35831 -6.79436 
1168 1 4.1374 -3.28694 -6.95807 
85 1 4.49639 -4.14597 -5.1803 
3266 2 5.10627 -4.09437 -6.07772 
2767 2 4.95189 -3.33615 -5.96017 
284 1 5.31242 -3.49199 -6.9714 
802 1 6.23615 -4.2328 -6.39335 
2348 1 6.10221 -4.03024 -7.21772 
2975 2 -7.12914 -3.23107 -6.56434 
472 1 -6.05504 -2.962 -6.64259 
2074 1 -6.42334 -2.71776 6.88914 
2045 1 -6.2072 -2.39733 -5.96444 
2699 1 -5.38036 -3.00355 -6.07298 
670 1 -5.30199 -2.01044 -5.95975 
3360 2 -5.2979 -1.79877 -7.08491 
1434 1 -4.01721 -2.32735 -7.15727 
923 1 -4.52909 -2.79021 -6.27627 
1445 1 -3.39097 -1.89107 -6.63461 
1315 1 -2.83102 -2.67493 -6.72745 
1370 1 -2.15922 -2.17677 -7.10199 
3332 2 -1.174 -3.06618 -6.41966 
3234 2 -1.33632 -2.16952 -6.24798 
2368 1 0.0979689 -3.49614 -6.75382 
1106 1 -0.238706 -2.72748 -6.97019 
1940 1 0.0707923 -2.85154 -5.9674 
1618 1 0.36354 -1.71457 -5.78947 
3503 2 0.938722 -2.72639 -6.78133 
886 1 1.80216 -2.77036 -6.02772 
72 1 2.85992 -2.36738 -6.52851 
1837 1 2.19205 -2.50028 -6.76788 
1698 1 3.94839 -2.19267 -6.6925 
985 1 3.67858 -2.7363 -6.07586 
1362 1 5.27068 -2.47891 -6.97537 
3550 2 4.81141 -2.50877 -5.89884 
2530 1 6.09597 -3.01501 -7.12455 
3126 2 6.98226 -2.44398 -6.71763 
1788 1 6.03044 -3.29367 -6.28821 
1872 1 6.16528 -2.4328 -5.95159 
1207 1 -6.34582 -1.96856 -6.72649 
194 1 -6.54386 -1.13135 -6.70911 
3097 2 -5.42522 -0.949417 -6.96284 
1514 1 -4.82147 -1.16843 -5.9829 
2578 1 -4.43195 -1.94528 -6.37936 
2641 1 -3.36486 -0.910289 -6.47426 
499 1 -4.27376 -0.815494 -6.48989 
2195 1 -4.07853 -1.469 -7.07 
911 1 -2.66452 -1.55489 -6.22415 
1822 1 -2.3048 -1.21701 -6.901 
174 1 -1.57965 -1.50648 6.8878 
3105 2 -1.36532 -1.32521 -6.13123 
3200 2 -1.7515 -0.511598 -5.97543 
1057 1 -0.461236 -0.158554 -6.1216 
2381 1 -0.243399 -1.84773 -6.5432 
2480 1 -0.364979 -0.971738 -6.38617 
2804 2 0.845122 -1.07945 -6.86449 
3347 2 0.908919 -1.97185 -6.86821 
1859 1 1.94246 -1.8709 -6.19761 
769 1 1.82323 -1.26835 -6.84997 
1241 1 1.42776 -0.813022 -5.99227 
2500 1 3.47096 -0.978875 -5.83247 
925 1 2.61852 -1.41296 -6.19706 
2183 1 3.8138 -1.34225 -6.50076 
1806 1 4.82133 -1.68002 -7.01768 
483 1 5.47999 -1.08223 -6.84963 
847 1 5.74929 -1.75486 -6.1668 
455 1 4.72164 -0.502935 -6.81349 
3087 2 6.81979 -1.64282 -6.71264 
2840 2 6.88975 -1.0316 -6.30422 
2477 1 -6.80939 -0.198679 -7.03409 
806 1 -6.38875 -0.422251 -6.0049 
493 1 -4.80791 -0.092354 -6.0551 
3127 2 -5.58263 -0.143429 -6.85926 
3007 2 -5.72613 0.657957 -6.63159 
519 1 -4.41994 -0.0743817 -7.05428 
83 1 -3.83271 -0.152653 -6.41641 
2490 1 -2.93155 -0.23136 -6.2591 
2077 1 -3.00076 0.367244 -5.73048 
1457 1 -2.37509 -0.363537 -6.70052 
1094 1 -1.42258 -0.0418015 -6.98824 
2796 2 -1.41265 0.0840603 -5.63503 
1993 1 -0.534526 -0.0354947 -7.06457 
3151 2 0.583674 -0.347972 -6.64198 
1116 1 -0.801406 0.620353 -6.37671 
3088 2 0.52037 0.392657 -6.22257 
1834 1 1.84712 -0.337086 -6.75837 
42 1 2.17243 0.155952 -6.08583 
2336 1 2.64782 -0.50629 -6.20521 
2575 1 2.78661 0.693505 -5.60186 
2617 1 3.8619 -0.544986 -6.77938 
2535 1 3.48381 -0.0173676 -6.28391 
873 1 4.18357 0.352473 -6.60794 
234 1 5.80596 -0.110116 -6.89559 
140 1 5.67313 -0.79681 -6.18054 
1648 1 5.10885 0.147507 -6.33649 
2797 2 6.71411 -0.306099 -6.1499 
3135 2 6.51442 0.490066 -6.06745 
1455 1 -6.97446 1.30073 -6.28319 
1340 1 -6.73631 0.316172 -6.35485 
450 1 -6.6802 1.70156 -7.23701 
3140 2 -5.87759 1.44729 -6.55419 
1474 1 -4.59771 0.724287 -6.57177 
668 1 -4.91245 1.88172 -6.72341 
1928 1 -3.72497 0.714621 -6.19411 
3148 2 -3.68084 1.30768 7.02292 
857 1 -4.25186 1.72522 -6.26575 
580 1 -2.92181 0.884994 -6.41151 
1933 1 -2.81461 1.88823 -6.64008 
1523 1 -1.92657 1.43158 -6.82572 
337 1 -2.58161 1.57971 6.90537 
1265 1 -1.4063 0.869648 -6.88821 
395 1 -2.13175 0.443594 -6.72444 
2037 1 -0.804777 1.23335 -5.6603 
855 1 -0.685569 1.70349 -6.94341 
3311 2 0.240554 1.0662 -6.37994 
2928 2 0.0624751 1.77747 -6.18204 
2558 1 1.46775 0.553256 -6.70672 
2522 1 1.32691 1.53688 -6.8163 
2960 2 2.62253 0.429147 -7.08191 
3459 2 2.60822 1.1141 -6.96472 
1286 1 3.73866 1.41966 -6.85561 
565 1 3.45313 1.76238 6.85231 
850 1 3.32108 0.871271 -6.27782 
1625 1 3.73924 0.792212 7.0074 
50 1 4.45129 1.14883 -6.31597 
2414 1 5.2534 1.88396 -6.51837 
1176 1 5.51406 0.929408 -6.62909 
3373 2 4.69247 1.52019 6.95173 
2637 1 6.87263 1.68018 -6.87141 
571 1 7.15832 0.831246 -7.04227 
2305 1 7.12737 2.04945 -5.94774 
3465 2 -6.1177 2.16496 -6.41843 
2736 2 -6.33422 2.87681 -6.2699 
1027 1 -6.88509 2.80106 7.10761 
877 1 -5.14163 2.64841 -6.90994 
408 1 -4.73286 2.71773 -5.8671 
3093 2 -3.8673 2.09953 -7.10808 
2783 2 -4.04154 2.79565 -6.86451 
1669 1 -4.00251 2.46591 -5.81709 
1264 1 -3.2304 2.44663 -6.03426 
2505 1 -2.67161 2.38972 7.08477 
1932 1 -2.11951 2.32767 -6.52157 
285 1 -2.81184 3.05966 -6.72749 
1454 1 -3.13354 3.20734 6.88793 
902 1 -0.977971 2.59497 -6.9578 
1965 1 -1.20639 1.79679 -6.27698 
3078 2 -0.0216888 2.4831 -6.01396 
1817 1 0.209178 2.26919 7.24414 
586 1 0.650541 3.23937 -6.85394 
894 1 1.00945 2.16907 -6.43421 
3393 2 2.31799 1.87766 -6.79091 
3417 2 2.04819 2.58305 -6.59037 
1503 1 3.27197 2.47399 -7.01672 
2380 1 4.43104 1.96576 -6.09253 
2711 1 4.07019 2.88056 -6.00183 
785 1 3.16193 3.15221 -6.45954 
3215 2 4.26907 3.00273 -7.18562 
74 1 3.66191 2.13684 -6.31828 
2092 1 6.13356 2.11732 -7.11968 
1778 1 5.04552 2.7482 -6.36146 
1515 1 6.9534 2.46675 -6.6499 
1883 1 5.98272 2.96829 -6.7419 
3238 2 -6.45743 3.64586 -6.15267 
718 1 -6.55387 4.74806 -7.08034 
402 1 -5.90087 3.99459 -7.16627 
1662 1 -6.78808 3.72058 7.01581 
3045 2 -6.6506 4.32487 -5.98755 
1410 1 -5.19407 3.20018 -6.35226 
2386 1 -5.36937 3.98859 -6.28441 
3408 2 -4.05671 3.52645 -6.56427 
3411 2 -4.16082 4.17428 -6.83551 
732 1 -3.67982 4.43581 -5.69062 
474 1 -2.20255 3.25565 -6.30009 
1623 1 -2.68186 3.81604 -6.08145 
1894 1 -3.03338 3.96345 -6.73017 
2452 1 -1.18707 3.30618 -6.79666 
883 1 -1.33249 4.08875 -6.49331 
1230 1 -0.528059 3.80461 -7.15886 
2630 1 -0.253257 4.6845 -6.74784 
1685 1 0.663384 4.11236 -6.90312 
3444 2 -0.317094 3.21767 -5.94874 
3466 2 1.75092 4.07353 -6.49625 
2429 1 0.985993 3.01215 -6.12761 
1486 1 0.699574 4.02553 -5.84909 
3478 2 1.91356 3.34656 -6.5421 
1689 1 2.89936 4.02949 -6.89436 
1066 1 2.93791 4.32479 -6.10643 
908 1 3.79285 3.86768 -5.9895 
3551 2 4.02098 3.8141 -7.04318 
2377 1 5.61796 4.08701 -6.56556 
2025 1 4.74378 3.52728 -6.18689 
131 1 6.97761 4.29273 -6.79557 
889 1 6.32727 3.83674 -6.34718 
2072 1 6.84804 3.38473 -6.8923 
1396 1 -6.29487 5.43652 -6.74641 
1594 1 -5.5968 4.77472 -6.75597 
3463 2 -4.52027 5.3888 -6.38771 
822 1 -5.73453 5.66611 -6.13172 
3471 2 -4.31219 4.71671 -6.41202 
2687 1 -3.41865 5.82663 -6.7687 
1102 1 -3.27106 4.90357 -6.88865 
3306 2 -2.31088 5.77146 -6.7778 
3098 2 -2.24114 5.12648 -7.11651 
197 1 -2.12224 4.51988 -6.03093 
358 1 -3.01796 4.58716 -6.19807 
1394 1 -2.51754 5.25543 -5.8636 
345 1 -1.12935 5.00959 -6.55396 
482 1 0.446529 4.85498 -6.23557 
1744 1 -0.374633 5.53202 -6.4513 
1567 1 0.442058 5.78667 -6.48014 
1763 1 0.517131 4.99648 -5.46799 
3138 2 1.59748 4.86715 -6.36663 
2831 2 1.36183 5.6385 -5.97421 
862 1 2.65464 4.90536 -6.76758 
295 1 2.5295 5.65697 -6.30409 
3223 2 3.8902 4.65161 -6.98647 
2790 2 3.85941 5.43174 -6.9094 
665 1 3.43206 4.96622 -6.02485 
865 1 4.62203 4.6767 -6.28759 
1927 1 5.6777 5.01849 -6.26082 
255 1 5.06747 5.25625 -6.81237 
2594 1 5.22398 5.87259 -6.24543 
686 1 4.49853 5.55033 -6.03029 
1631 1 6.98688 5.10184 -6.70776 
115 1 6.14466 5.79228 -6.13345 
141 1 6.52424 4.83667 -6.00183 
691 1 -6.84028 6.04747 -7.08622 
2191 1 -6.09695 6.26618 -6.78844 
3477 2 -4.86389 6.9222 -6.18667 
833 1 -5.32496 5.72469 -7.11045 
2437 1 -5.63043 6.96327 -6.92198 
3150 2 -4.60522 6.13725 -6.42592 
2002 1 -3.73473 6.80304 -6.60396 
2275 1 -3.402 6.29224 -5.95692 
2839 2 -2.39342 6.56999 -6.68538 
2322 1 -1.44127 -7.15311 -6.15267 
1652 1 -1.49928 5.68806 -6.00035 
1308 1 -0.563781 6.45352 -6.14905 
1107 1 -0.625595 -7.07936 -5.9494 
1261 1 0.584184 6.8594 -6.38232 
1634 1 1.24633 6.94813 -6.95991 
641 1 1.15159 6.08647 -7.09009 
1905 1 0.667627 -7.04106 6.88776 
40 1 2.07859 6.80978 -6.46803 
96 1 2.06599 6.0905 -6.98861 
2088 1 2.69311 6.57893 -7.18707 
3587 2 3.42037 7.08289 -6.41664 
3569 2 3.49752 6.24885 -6.5113 
1295 1 4.51746 6.65272 -6.19913 
2787 2 5.60706 -7.10311 -6.97342 
404 1 5.30419 6.66463 -5.94294 
795 1 4.55731 6.30334 -6.91382 
365 1 6.87552 5.9081 -6.61018 
3539 2 5.62227 6.53527 -7.03382 
240 1 6.90848 6.81439 7.16667 
2574 1 -6.40299 -5.96904 -5.50482 
2727 1 -6.11743 -6.83751 -5.4657 
1312 1 -6.18132 -6.87264 -4.6292 
1555 1 -5.83211 -5.90621 -4.63926 
1885 1 -5.25869 -6.60414 -4.67902 
715 1 -3.50804 -6.49296 -5.44932 
658 1 -2.98341 7.10318 -5.56629 
582 1 -4.26893 -5.68565 -4.839 
977 1 -4.32332 -6.58076 -4.99496 
1227 1 -2.52288 -6.37822 -5.16466 
2453 1 -2.15929 -6.68214 -4.51707 
1725 1 -1.72801 -6.18242 -5.63953 
26 1 -1.84182 -7.08238 -5.4546 
3455 2 -0.921604 -6.71994 -4.81802 
2491 1 -0.0574825 -6.49095 -5.71303 
687 1 0.0231348 -6.25615 -4.88656 
133 1 0.336868 -7.05077 -4.87179 
3128 2 1.0475 -6.32712 -5.4174 
2462 1 3.47082 -6.99719 -4.98698 
1175 1 2.7263 -7.24075 -5.45479 
2656 1 3.40037 -6.2024 -4.75107 
893 1 2.51853 -6.55322 -4.98537 
329 1 4.4024 -5.88054 -6.17351 
440 1 4.22418 -6.22467 -5.28919 
2136 1 5.85368 -7.10794 -5.85081 
1051 1 5.00316 -6.49419 -5.8759 
274 1 6.33059 -6.32943 -5.90364 
3487 2 7.11328 -6.75665 -5.29581 
2479 1 6.13733 -6.101 -4.56185 
1667 1 6.00929 -7.03866 -5.03284 
1718 1 -6.19337 -5.14302 -5.31699 
2269 1 -6.41608 -5.26217 -4.56495 
3416 2 -5.15509 -6.02469 -5.6336 
3325 2 -5.33096 -4.61681 -5.35647 
1671 1 -4.20665 -4.92628 -5.79304 
2496 1 -4.14752 -4.76328 -4.94528 
2248 1 -3.60622 -3.95661 -4.90868 
2612 1 -3.47696 -5.41154 -5.20005 
1143 1 -2.16844 -5.44576 -5.29573 
401 1 -3.14694 -4.66364 -4.9766 
15 1 -1.17984 -5.14889 -5.69982 
3594 2 -1.22764 -5.85298 -4.60772 
1210 1 -0.447603 -5.55048 -5.53151 
1966 1 0.137642 -4.82746 -6.02913 
2826 2 0.884224 -5.64852 -5.18287 
3068 2 0.980333 -4.91776 -5.34854 
2113 1 1.67846 -5.38691 -4.49199 
224 1 2.50192 -5.78911 -4.68279 
2298 1 2.07648 -5.17666 -5.23773 
538 1 4.33644 -4.88132 -5.47042 
2051 1 3.90979 -5.50965 -4.96323 
388 1 3.72006 -4.51325 -4.68006 
10 1 5.6442 -6.16498 -5.28905 
1373 1 5.05679 -5.43153 -5.40981 
1526 1 6.24314 -5.41706 -5.83426 
2828 2 7.01947 -6.01334 -5.10926 
3010 2 6.82974 -5.20274 -4.98114 
1673 1 -6.52878 -4.13711 -5.02121 
2023 1 -6.69302 -4.60775 -5.69814 
1999 1 -6.30096 -4.47944 -4.30497 
2737 2 -5.4138 -3.84439 -4.99062 
477 1 -4.35609 -3.89075 -5.56154 
2310 1 -4.37258 -3.48496 -4.77815 
458 1 -2.29577 -4.42544 -5.23441 
2524 1 -1.57472 -3.34488 -5.3178 
37 1 -2.66966 -3.50508 -5.18608 
2139 1 -1.32982 -4.11315 -5.49115 
995 1 -0.595827 -3.81812 -4.44709 
1433 1 -0.0580502 -3.68582 -5.91932 
3227 2 0.392356 -3.51155 -4.9415 
527 1 -0.47794 -4.35507 -5.46647 
2768 2 0.766515 -4.24668 -4.99518 
2599 1 2.03611 -4.57706 -5.76523 
1425 1 1.78365 -3.54286 -5.17383 
1984 1 1.69757 -3.8216 -5.94855 
3249 2 3.13754 -4.42995 -5.52922 
3014 2 2.72555 -3.58682 -5.43598 
148 1 4.63864 -3.29311 -4.8831 
1472 1 3.70415 -3.52159 -4.69839 
2150 1 3.85742 -3.39728 -5.51108 
2721 1 5.45664 -4.59102 -5.16708 
2552 1 5.47846 -3.85522 -4.79272 
1954 1 6.75016 -4.68301 -6.00118 
1320 1 6.16548 -4.44851 -5.54877 
3080 2 6.89938 -4.43495 -4.71919 
639 1 6.98834 -3.75116 -5.67195 
659 1 -6.13106 -3.48812 -5.8823 
1496 1 -7.0534 -2.21282 -5.7221 
346 1 -6.66528 -3.20511 -5.36902 
2890 2 -5.50072 -3.03076 -5.00338 
2974 2 -5.81135 -2.2689 -4.90394 
2132 1 -4.84803 -2.15981 -5.33483 
647 1 -4.64216 -2.95182 -5.47252 
172 1 -3.56286 -3.03503 -4.65586 
3061 2 -3.57582 -2.46885 -5.61084 
2981 2 -3.4129 -3.15144 -5.91285 
56 1 -4.4775 -2.64992 -4.59722 
821 1 -2.30958 -2.4885 -6.10227 
2706 1 -2.41206 -2.60792 -5.2467 
1446 1 -2.97087 -2.31243 -4.68682 
1643 1 -1.43696 -2.57296 -5.21311 
484 1 -0.594269 -3.22621 -5.26034 
644 1 0.968488 -3.35921 -5.88934 
1484 1 -0.53323 -2.23955 -5.54007 
3430 2 0.468186 -2.85264 -4.59757 
3354 2 0.367711 -1.88157 -4.61695 
1462 1 0.854908 -2.48058 -5.64278 
1953 1 1.60426 -2.75227 -5.0711 
2830 2 2.7698 -2.8369 -5.36389 
3356 2 2.54716 -2.08062 -5.25761 
1385 1 3.49805 -1.90164 -5.86749 
1313 1 3.84443 -2.6137 -4.84379 
1830 1 6.09171 -3.49931 -5.49757 
2130 1 5.63667 -2.58804 -5.21632 
1493 1 5.36884 -2.96172 -4.48682 
1034 1 4.62038 -2.44498 -4.75073 
452 1 6.83411 -2.86797 -5.52603 
1301 1 -6.91742 -2.21071 -4.78343 
2054 1 7.14991 -1.33831 -4.80749 
304 1 -6.71075 -1.31614 -5.81015 
2993 2 -5.87417 -1.42914 -4.83124 
1835 1 -4.93695 -1.21474 -5.16963 
720 1 -5.88871 -1.43016 -6.01637 
3041 2 -3.81315 -1.71084 -5.55841 
2869 2 -3.74017 -0.970459 -5.41074 
1815 1 -2.65045 -0.869543 -5.47959 
1064 1 -2.42451 -1.76833 -5.53877 
1864 1 -1.90408 -0.792277 -4.91613 
572 1 -2.68764 -1.37498 -4.86933 
2549 1 -1.85989 -1.87004 -5.12279 
1380 1 -0.519443 -0.967166 -5.51736 
1890 1 0.953344 -0.906149 -5.21881 
2105 1 0.341331 -1.00123 -5.86331 
2605 1 1.36023 -1.66719 -5.59338 
971 1 1.41144 -1.22482 -4.55637 
3557 2 2.56923 -1.17907 -5.06982 
859 1 3.56061 -0.778847 -4.99564 
3449 2 2.16776 -0.593758 -5.24347 
2084 1 3.2514 -2.05411 -4.31083 
840 1 3.49854 -1.34443 -4.46368 
2995 2 4.56914 -0.861837 -5.80342 
110 1 3.83677 -1.82434 -5.09548 
153 1 5.43614 -1.58921 -5.06897 
2972 2 4.73087 -1.68016 -5.91117 
1466 1 5.37616 -0.66258 -4.90726 
377 1 6.0206 -1.1263 -5.54515 
1145 1 6.58103 -1.84778 -5.42805 
3267 2 -6.08908 -0.69029 -4.71154 
1402 1 -7.00525 -0.62331 -5.24235 
2423 1 -6.73253 0.307151 -5.40212 
1841 1 -5.05882 -0.34114 -5.00368 
1369 1 -5.43773 -0.62972 -5.71341 
1551 1 -5.69166 0.174388 -5.6953 
443 1 -5.34022 0.523944 -4.99909 
2844 2 -4.00486 -0.27576 -5.2983 
3543 2 -4.13174 0.531714 -5.1906 
1790 1 -2.68377 -0.172471 -5.00339 
1268 1 -2.28695 0.771689 -4.73854 
2601 1 -2.00001 0.0776219 -4.55972 
400 1 -0.379175 0.6588 -5.23114 
871 1 -1.03083 -0.38373 -4.78726 
2395 1 -1.17223 0.5599 -4.66913 
75 1 0.0648922 -0.183523 -5.36552 
1432 1 1.09849 -0.226552 -5.56465 
1531 1 1.08971 -0.404173 -4.42933 
1777 1 0.659258 0.245154 -4.94505 
2231 1 3.13132 -0.108047 -5.53827 
3383 2 2.02916 0.0330026 -4.83785 
1185 1 3.04409 0.251372 -4.65904 
3317 2 4.22546 -0.135109 -5.42733 
2722 1 3.47274 -0.335467 -4.28116 
1568 1 5.54382 -0.0734454 -5.69053 
34 1 6.48469 -0.498441 -5.18518 
2151 1 6.92103 0.580427 -5.11924 
2297 1 5.99688 0.208476 -4.96539 
263 1 -6.98317 1.34313 -5.42155 
2523 1 -6.25178 0.980113 -5.58481 
2677 1 -5.06446 0.870654 -5.83261 
2560 1 -5.0986 1.87326 -5.74574 
2180 1 -5.56728 1.3354 -5.15501 
1833 1 -3.38852 1.54362 -6.01714 
3256 2 -4.33573 1.38196 -5.02458 
1238 1 -3.08754 1.39046 -5.32116 
2030 1 -2.99248 1.73921 -4.28265 
2846 2 -2.15707 1.63102 -5.68274 
2939 2 -1.87212 0.699033 -5.70538 
28 1 -1.2873 2.20297 -5.1701 
1880 1 -1.38449 1.32948 -4.93461 
1257 1 -0.497953 1.85995 -5.16146 
549 1 0.266805 1.04371 -5.01402 
76 1 1.40316 1.54524 -5.95267 
1374 1 1.37292 0.635646 -5.49472 
175 1 2.19013 1.0741 -6.04277 
221 1 0.818594 1.58962 -5.34499 
2276 1 2.95554 1.63737 -5.84876 
2707 1 2.79996 1.38324 -4.8875 
3443 2 1.75867 0.826447 -4.59044 
2848 2 3.95802 0.597284 -5.22911 
3364 2 3.84292 1.37892 -5.20195 
941 1 5.07478 0.847196 -5.76653 
779 1 5.0434 1.70346 -5.3441 
2584 1 5.581 0.966725 -4.96299 
698 1 5.68762 1.70276 -4.69927 
3038 2 6.16458 1.13765 -5.9345 
1151 1 6.4043 1.00947 -4.6161 
92 1 -6.8379 2.41813 -5.26423 
896 1 -6.1151 3.17044 -5.19288 
2690 1 -5.51737 2.6734 -5.54118 
1584 1 -6.08914 2.008 -5.37399 
3144 2 -4.45242 2.10029 -4.67107 
2861 2 -4.67277 2.8289 -4.60049 
488 1 -3.32268 3.41303 -5.7937 
1224 1 -4.43822 3.44082 -5.56379 
1986 1 -3.31421 2.26944 -5.00385 
3117 2 -2.30234 2.39314 -5.38942 
2945 2 -2.4254 3.02925 -4.99176 
2708 1 -1.23804 2.65762 -6.0193 
2647 1 -0.650281 2.90078 -4.98201 
1132 1 -0.184678 3.58409 -4.57315 
2442 1 0.152982 2.27714 -4.77264 
1375 1 1.03569 2.55784 -5.40966 
867 1 0.443444 3.27156 -5.07615 
1713 1 1.8153 2.53321 -5.61079 
171 1 2.04418 1.66753 -5.42484 
2271 1 2.26638 3.22049 -5.27424 
268 1 2.87003 2.49412 -5.76589 
3388 2 3.90977 2.18299 -4.91507 
3433 2 3.57836 2.88044 -5.04433 
1939 1 4.8085 2.59144 -5.46723 
81 1 4.88704 1.96458 -4.45671 
2497 1 5.47209 2.6513 -4.59895 
1335 1 6.89361 1.69764 -4.92144 
3414 2 6.02145 2.72892 -5.55162 
3060 2 6.11212 1.96255 -5.76221 
13 1 6.7816 2.61748 -4.94727 
577 1 6.97133 2.99469 -5.94153 
2209 1 -7.07289 4.24413 -4.86968 
1760 1 -6.97338 3.25316 -5.06027 
789 1 -6.17949 4.23718 -5.08564 
2376 1 -5.48018 3.58542 -5.34683 
2200 1 -4.75496 4.22088 -5.58378 
2436 1 -3.64755 3.14535 -4.97961 
2495 1 -3.99604 4.03707 -4.96842 
2977 2 -2.51832 3.90094 -5.02055 
46 1 -1.24804 3.48049 -4.97347 
2208 1 -0.871291 4.11517 -4.60796 
561 1 -1.43985 3.46132 -5.73108 
2813 2 -0.35826 3.98475 -6.03897 
1521 1 0.228351 4.28785 -4.96583 
2176 1 1.47615 3.58554 -5.55187 
1639 1 1.21284 4.35045 -5.231 
530 1 2.63548 3.57009 -5.85805 
1997 1 2.12874 4.07267 -5.30677 
3013 2 3.16545 4.52237 -4.92062 
2894 2 3.36079 3.73575 -4.927 
825 1 4.26018 4.21195 -5.42144 
2703 1 4.67773 3.46916 -5.24376 
3298 2 5.72743 3.50698 -5.51474 
2917 2 5.30771 4.45304 -5.46939 
2541 1 6.82651 3.87532 -5.61764 
1169 1 6.5542 3.56453 -4.63957 
3147 2 -6.82395 5.10819 -5.80764 
2469 1 -6.5232 5.80598 -4.5211 
612 1 7.12746 5.13035 -4.71366 
1697 1 -5.51592 4.66644 -5.69601 
1255 1 -5.0159 5.33245 -5.50797 
1318 1 -5.74842 6.20874 -5.35505 
297 1 -6.07232 5.26407 -5.14808 
1543 1 -4.30116 5.07319 -5.16763 
2466 1 -3.44203 5.3939 -5.97718 
361 1 -4.09915 5.88001 -5.35344 
101 1 -4.11448 4.9423 -4.38371 
2865 2 -2.91839 4.49471 -4.90505 
3458 2 -3.09458 5.16532 -4.8916 
1030 1 -1.82338 5.17791 -5.47608 
353 1 -1.56578 4.39272 -5.57437 
3378 2 -0.587886 4.56455 -5.56295 
3392 2 -0.757836 5.32038 -5.38854 
849 1 0.210304 5.83534 -5.63533 
1196 1 0.0549692 5.21228 -4.70338 
1709 1 1.10739 5.45141 -4.91647 
23 1 1.7798 4.94835 -4.95398 
614 1 2.42966 4.93878 -5.58747 
103 1 3.10239 5.66544 -5.57556 
1249 1 2.09012 5.72918 -5.10435 
2814 2 3.26101 5.22307 -4.50708 
1422 1 4.10067 6.16997 -5.64557 
1390 1 3.99075 5.04009 -5.37197 
2028 1 4.17195 5.70951 -4.86916 
451 1 4.59157 5.11207 -4.37306 
2927 2 5.23225 5.27302 -5.22064 
3257 2 5.09978 6.03773 -5.08727 
2546 1 6.39942 4.52126 -5.21926 
462 1 6.26696 5.57277 -5.28573 
2747 2 7.16672 6.85807 -5.58332 
3330 2 -7.03992 5.93292 -5.69165 
1490 1 -6.13217 6.64529 -4.70023 
1060 1 -6.07531 6.83791 -5.91712 
964 1 -5.32876 7.0409 -5.09431 
803 1 -4.95761 6.1363 -5.31493 
1004 1 -3.98158 6.80875 -5.52173 
1235 1 -2.53981 6.13261 -5.67529 
2626 1 -1.79362 5.97521 -4.84721 
2988 2 -3.03494 5.94671 -4.717 
2018 1 -1.65153 6.47483 -5.65151 
180 1 -2.2322 6.84914 -4.90655 
3265 2 -3.2426 6.81167 -4.53991 
3018 2 -0.870349 6.85695 -4.83919 
3207 2 -0.818457 6.03216 -4.90778 
512 1 0.0951838 6.79301 -5.63427 
2038 1 0.392025 6.13579 -4.84375 
2899 2 1.26836 6.56301 -5.72345 
2978 2 1.31734 -7.07348 -5.46257 
27 1 1.84423 -6.93397 -4.65411 
372 1 1.61447 6.23472 -4.38712 
1333 1 2.43578 6.37975 -5.91951 
245 1 2.17453 6.63087 -4.97024 
2256 1 3.28744 6.5199 -5.33756 
1513 1 4.12099 7.16374 -5.48484 
2971 2 4.88659 6.92872 -4.88447 
1263 1 6.14966 6.21968 -4.41732 
2160 1 6.06714 6.50227 -5.34331 
610 1 -6.81083 -6.96172 -3.49282 
2106 1 -6.57345 -6.04119 -4.23301 
3469 2 -5.88497 -5.53345 -3.30563 
1893 1 -6.9375 -5.95699 -3.44476 
3545 2 -5.55483 -6.18707 -3.41286 
1232 1 -4.56549 -6.52319 -4.11644 
3413 2 -3.6098 -6.05489 -3.9215 
2835 2 -3.36868 -6.72391 -4.2965 
278 1 -3.73534 -6.90047 -3.21424 
1252 1 -2.56205 -6.546 -3.37575 
356 1 -1.38602 -6.82326 -3.83563 
1836 1 -1.27805 -6.10552 -3.60507 
945 1 -0.613425 -6.22459 -3.06571 
811 1 -0.626041 -7.0432 -3.68997 
3056 2 0.633748 -7.004 -3.24351 
2096 1 0.00963571 -6.37893 -4.02647 
3236 2 0.600328 -6.28013 -3.18861 
1416 1 0.838645 -6.64404 -4.23725 
1382 1 1.65386 -6.24195 -4.21795 
1300 1 1.67354 -6.65828 -3.45326 
3303 2 2.67429 -5.96142 -3.55336 
3497 2 2.69234 -6.67408 -3.85539 
1160 1 3.8095 -6.01914 -3.97849 
2315 1 3.85309 -6.98159 -4.27477 
189 1 4.08664 -6.92553 -3.39313 
2926 2 5.00057 -6.72401 -4.69028 
3290 2 4.81317 -6.20748 -4.14133 
2075 1 5.47375 -5.99038 -3.34549 
492 1 4.44819 -6.09451 -3.07605 
2288 1 7.00105 -6.62942 -4.16332 
2162 1 6.67788 -5.76759 -3.91667 
1013 1 -6.89745 -5.05308 -3.9232 
2332 1 -4.86153 -5.66388 -4.13822 
1609 1 -4.56117 -5.92252 -3.37559 
1730 1 -4.80763 -5.0103 -3.30266 
138 1 -5.50185 -5.06774 -4.20557 
2388 1 -4.71174 -4.68592 -4.30622 
3562 2 -3.72616 -5.29469 -3.90443 
3536 2 -3.68677 -4.4477 -3.91877 
1691 1 -2.72946 -5.77002 -4.64632 
1344 1 -2.26605 -5.82015 -3.94237 
104 1 -2.47141 -4.95896 -4.30371 
3322 2 -1.33201 -5.06341 -4.57256 
1728 1 -1.70128 -5.36975 -3.49686 
842 1 -0.0153605 -5.46876 -4.42304 
1945 1 -0.541348 -5.78462 -3.74087 
1810 1 -0.497117 -4.9927 -3.69639 
2102 1 0.543876 -4.85952 -3.98648 
1799 1 0.782063 -5.73262 -4.13315 
2067 1 1.33673 -4.85803 -4.04935 
1992 1 1.52322 -5.65645 -3.47948 
2178 1 1.72164 -4.44061 -4.63495 
2306 1 2.52165 -4.29602 -4.62942 
2918 2 2.50804 -5.19285 -3.58414 
3379 2 2.33 -4.44355 -3.62329 
281 1 3.59575 -5.21817 -3.99629 
2712 1 2.87763 -5.06372 -4.60861 
2458 1 4.2656 -5.33596 -3.26903 
1000 1 5.78343 -5.43176 -4.73234 
3340 2 4.68117 -4.70276 -4.28682 
2825 2 4.673 -5.45149 -4.27105 
317 1 5.63232 -5.32451 -3.79749 
1994 1 6.4651 -4.9265 -3.80229 
844 1 -6.63257 -3.99007 -3.89403 
587 1 -6.14311 -3.2677 -3.97291 
656 1 -6.87667 -3.32369 -4.47699 
2350 1 -5.46569 -3.95587 -3.91988 
2318 1 -4.72651 -4.13952 -3.21633 
1733 1 -4.61807 -3.89452 -4.18695 
3376 2 -3.8575 -3.68016 -3.59972 
904 1 -2.62426 -3.61993 -3.26223 
1470 1 -2.65342 -4.12993 -4.36707 
3480 2 -1.51588 -4.3248 -4.45272 
3285 2 -1.77623 -3.49163 -4.29358 
728 1 -1.73043 -4.46325 -3.39013 
1028 1 -0.870156 -4.02204 -3.61853 
139 1 -0.200258 -4.89793 -4.94745 
1468 1 -0.026964 -4.43532 -4.24794 
635 1 0.241981 -3.63245 -3.7735 
250 1 1.51266 -3.74362 -4.24877 
1863 1 0.961072 -4.11363 -3.61802 
1073 1 2.37453 -3.3235 -4.36424 
3230 2 2.17364 -3.77027 -3.33023 
891 1 3.25615 -3.98801 -4.23127 
1075 1 3.26569 -3.45829 -3.48575 
1653 1 3.78391 -4.60912 -3.44842 
3244 2 4.52045 -3.95474 -4.01677 
126 1 5.86337 -4.5626 -4.23113 
2365 1 5.47262 -3.65112 -3.75313 
3173 2 6.67011 -3.64418 -4.49057 
2109 1 7.02564 -4.32656 -3.53276 
2695 1 6.36838 -3.68172 -3.54626 
1707 1 -7.06077 -3.45807 -3.47193 
1325 1 -6.63301 -2.57037 -4.01734 
517 1 -4.88883 -2.07835 -3.97711 
1144 1 -5.61005 -2.50747 -3.77626 
1481 1 -5.01342 -3.19462 -3.25132 
525 1 -4.88938 -3.06411 -4.02323 
3083 2 -3.87971 -2.87646 -3.55742 
3229 2 -4.08345 -2.22013 -3.30157 
1581 1 -3.78771 -2.14417 -4.39136 
1979 1 -2.87739 -3.15494 -4.15142 
195 1 -2.82653 -2.59409 -3.66399 
1611 1 -0.799917 -2.1391 -4.7231 
2916 2 -1.79501 -2.72203 -4.13072 
954 1 -0.756993 -2.97115 -4.48478 
851 1 -0.533398 -3.13303 -3.7278 
1431 1 0.00539914 -2.37956 -3.52577 
1946 1 1.99793 -2.4183 -4.29719 
607 1 1.54213 -2.97664 -4.02042 
202 1 1.22767 -1.94489 -3.88559 
879 1 3.14543 -3.00627 -4.25467 
535 1 2.64815 -2.31495 -3.92773 
2857 2 4.40282 -3.2764 -3.82303 
3353 2 4.27416 -2.55025 -3.73254 
190 1 5.58643 -2.82371 -3.70375 
2858 2 6.59593 -2.85326 -4.49956 
3116 2 6.41748 -1.99705 -4.21143 
2225 1 7.05144 -2.59831 -3.37054 
1882 1 -7.15587 -0.843429 -3.91021 
863 1 -5.65949 -1.57612 -3.58977 
90 1 -6.42267 -1.53086 -3.97292 
960 1 -6.42908 -0.672844 -3.52839 
1627 1 -5.05492 -1.30073 -4.26547 
2296 1 -5.5789 -0.616849 -3.49551 
1572 1 -4.46988 -1.78808 -4.67455 
2674 1 -3.27339 -1.52327 -4.12726 
808 1 -4.14126 -0.947022 -4.32531 
2309 1 -2.92824 -1.82978 -3.50454 
2638 1 -3.54006 -0.425236 -3.76098 
3198 2 -1.87353 -1.98093 -4.07729 
2766 2 -1.87005 -1.17998 -3.97265 
2426 1 -1.16043 -1.48743 -5.03019 
2237 1 -0.88643 -1.05083 -4.1918 
2540 1 -1.02511 -0.64722 -3.29246 
3585 2 0.0959185 -1.13029 -4.49258 
128 1 -0.617614 -1.94924 -3.90238 
84 1 1.50338 -2.02767 -4.88915 
247 1 1.06423 -0.975851 -3.84893 
236 1 3.06949 -1.62242 -3.43513 
169 1 2.15551 -1.50833 -4.12233 
1337 1 2.8735 -0.88097 -3.88026 
2211 1 4.49682 -1.33557 -4.71459 
3134 2 4.1939 -1.7164 -3.71484 
2914 2 3.99294 -0.968253 -3.33865 
1299 1 5.21313 -2.03231 -4.26432 
1703 1 5.17167 -1.05677 -3.9905 
1031 1 -7.18219 -1.74429 -3.59047 
2856 2 6.2295 -1.24269 -4.02472 
1575 1 -6.94432 0.150898 -3.60571 
3186 2 -6.10794 0.146223 -4.4732 
1428 1 -4.8497 -0.422921 -4.22157 
2302 1 -5.24632 0.255828 -3.84616 
1248 1 -3.15196 0.375963 -4.32825 
111 1 -4.15645 0.0896788 -4.17972 
827 1 -3.5281 0.334541 -3.44195 
2748 2 -2.37143 -0.644043 -3.64709 
2718 1 -3.21444 -0.704088 -4.40759 
2789 2 -2.4956 0.24303 -3.52179 
2241 1 -1.27295 -0.182209 -4.03018 
1969 1 -1.34793 0.37308 -3.35326 
3500 2 0.0578265 -0.39888 -4.22862 
3555 2 -0.222042 0.341607 -4.05331 
2489 1 0.669938 0.707945 -3.32678 
506 1 1.99629 -0.636773 -3.96546 
1700 1 1.87055 0.238672 -3.71633 
692 1 0.96383 -0.101777 -3.56653 
1119 1 2.47814 0.416042 -2.96511 
922 1 2.78757 -0.0201372 -3.84434 
3483 2 3.85452 -0.206073 -3.00017 
296 1 4.15105 0.312738 -4.13426 
1548 1 4.42348 -0.518969 -4.36427 
2352 1 4.90694 -0.0828007 -3.93635 
2223 1 5.03436 0.210915 -4.89339 
1716 1 5.3518 -0.759614 -3.19079 
2351 1 6.7425 -0.772312 -3.09916 
2902 2 6.14153 -0.447911 -4.04211 
1138 1 7.10961 -0.137494 -4.55029 
2819 2 5.89224 0.24902 -3.93089 
3263 2 -6.35717 0.87556 -4.34642 
3260 2 -6.79684 1.45875 -4.30186 
1343 1 -5.32289 1.32831 -4.26084 
385 1 -4.76592 0.629156 -4.32813 
1913 1 -5.71995 0.935457 -3.52304 
882 1 -3.47574 1.14275 -4.1112 
1316 1 -4.24246 0.750488 -3.69556 
1483 1 -4.65751 1.58765 -3.63449 
3490 2 -2.59674 1.05166 -3.39242 
3588 2 -2.68684 1.81314 -3.21782 
1971 1 -2.17215 1.62309 -4.40233 
2108 1 -1.61172 0.980259 -3.97176 
3196 2 -0.52127 1.98727 -3.9263 
2950 2 -0.506212 1.24182 -4.11683 
2013 1 0.55888 1.7302 -4.20336 
1606 1 0.382548 1.56271 -3.21355 
2406 1 0.813958 0.794183 -4.17632 
2328 1 1.2754 1.3484 -3.48621 
3241 2 1.59976 1.83885 -4.49894 
583 1 2.55738 0.895138 -3.85881 
1501 1 2.67031 1.65504 -3.95964 
613 1 3.40744 1.05942 -4.25611 
1364 1 4.19015 1.30606 -3.90834 
763 1 4.57087 0.823335 -3.26384 
3209 2 5.61322 0.885282 -3.68475 
2327 1 4.80028 0.984051 -4.4684 
817 1 6.97267 0.702178 -4.10702 
523 1 6.55679 1.71172 -4.04584 
654 1 6.9228 0.936941 -3.35427 
3033 2 -6.6331 2.10834 -4.04223 
2751 2 -6.89184 2.79326 -3.98647 
2278 1 -5.6335 1.94731 -3.62788 
1793 1 -5.69736 2.09047 -4.53746 
1607 1 -5.10077 2.60381 -3.53196 
969 1 -3.83295 1.73397 -3.63339 
978 1 -4.02139 2.50119 -3.37015 
683 1 -3.52848 2.44443 -4.14063 
2529 1 -2.52773 2.52475 -4.17045 
154 1 -3.02353 3.35977 -4.17076 
1110 1 -1.8172 2.74734 -3.49874 
2592 1 -1.64219 3.01908 -4.26324 
1775 1 -1.56687 2.00627 -4.13422 
1002 1 -2.22357 3.55537 -3.58888 
2860 2 -0.761174 2.70293 -3.88195 
30 1 0.318877 2.9371 -3.94701 