ITEM: TIMESTEP
24200
ITEM: NUMBER OF ATOMS
3594
ITEM: BOX BOUNDS pp pp pp
-7.1997520036064717e+00 7.1997520036064717e+00
-7.1997520036064717e+00 7.1997520036064717e+00
-7.1997520036064717e+00 7.1997520036064717e+00
ITEM: ATOMS id type x y z 
1263 1 -6.34789 -6.18659 -6.06835 
558 1 -5.96706 -6.87531 -5.73213 
317 1 -7.11329 -6.12985 -6.45066 
3477 2 -4.70965 -6.89324 -6.02766 
1415 1 -5.59956 -6.53212 -6.68478 
601 1 -4.4218 -6.16542 -6.97816 
2033 1 -3.69645 -6.45139 -5.67195 
1718 1 -3.48873 -6.30145 -7.10389 
2944 2 -2.55981 -6.75292 -6.59762 
2018 1 -1.62965 -6.4096 -6.99571 
448 1 -1.42293 6.8398 -6.14185 
1435 1 -1.23584 -6.6336 -6.18991 
2368 1 -0.289244 -6.76346 -5.86065 
245 1 0.419023 -6.4192 -6.46108 
3368 2 -0.674063 -6.09717 7.15548 
1249 1 1.96851 -7.136 -6.91972 
1175 1 0.578325 -6.2628 7.07786 
1168 1 1.3023 -6.46283 -6.71828 
1172 1 2.1142 -6.2407 -6.7354 
1097 1 2.85937 -6.60372 7.06326 
3442 2 3.47301 -6.48129 -6.36731 
329 1 4.49586 -6.14712 -6.70458 
2787 2 5.67244 -6.25073 -6.88167 
1051 1 4.80021 -6.6294 -6.07136 
2160 1 4.66475 7.11621 -6.78321 
1530 1 5.37571 6.90945 -5.94725 
3539 2 5.72781 -7.10836 -7.03903 
1724 1 6.94316 -6.98434 -6.73917 
1373 1 6.66511 -5.89854 -7.0012 
2009 1 6.46516 -6.32169 -6.05315 
1184 1 -5.98111 -5.58554 -6.63887 
639 1 -6.55259 -5.27503 -6.05314 
1918 1 -6.89516 -4.50917 -5.93735 
1437 1 -5.23489 -5.74683 -7.00021 
1280 1 -5.71631 -4.67889 -6.8047 
1406 1 -4.56625 -5.24356 -6.81945 
520 1 -3.86914 -5.80803 -6.35474 
754 1 -3.59959 -5.24584 7.19509 
3574 2 -2.69465 -5.96566 -6.33425 
2981 2 -2.85132 -5.15791 -6.3575 
2058 1 -1.76756 -5.05926 -5.97565 
1582 1 -1.44369 -5.72067 -6.31984 
3019 2 -0.756085 -5.31938 -6.96885 
1133 1 -0.921383 -4.97816 -5.87918 
2124 1 -2.10916 -5.66139 7.15694 
1689 1 0.207517 -5.80038 -6.09306 
1050 1 0.0711255 -4.76185 -6.05688 
1088 1 1.26725 -5.53477 -6.41498 
2957 2 3.2303 -5.73751 -6.21516 
1538 1 2.64471 -5.67479 -7.11328 
2933 2 3.06934 -4.94473 -5.95589 
1234 1 3.43688 -4.43778 -6.90226 
2537 1 1.95358 -5.16758 -6.52562 
2150 1 4.18825 -4.63209 -6.37658 
1416 1 4.47647 -5.58631 -6.02998 
1471 1 4.14938 -5.52304 -7.04192 
3208 2 5.39876 -5.4766 -6.75613 
2812 2 5.44964 -4.70873 -6.65488 
695 1 6.91206 -5.30773 -6.31556 
659 1 6.39822 -4.79775 -6.98422 
3029 2 -6.89423 -4.92316 -7.15802 
2122 1 -6.09881 -4.20415 -6.19915 
2254 1 -5.89133 -3.57132 -6.78063 
1345 1 -4.88067 -3.2492 -6.35058 
977 1 -4.88341 -4.04739 -6.43916 
2612 1 -4.05211 -4.50674 -6.97925 
2706 1 -4.07125 -3.62803 -6.78259 
2727 1 -4.2435 -4.81448 -6.24298 
3041 2 -3.18901 -3.60632 -5.99663 
3061 2 -3.24551 -4.43618 -5.95293 
909 1 -1.88264 -4.96259 -6.8292 
667 1 -3.26097 -3.25389 -7.14588 
484 1 -2.13885 -4.17576 -6.06407 
2289 1 -2.40341 -4.02552 -6.91424 
3484 2 -0.83105 -4.34942 -6.77386 
2808 2 -1.1132 -3.66363 -6.47698 
1106 1 0.0937248 -3.71567 -6.92996 
2709 1 0.256437 -4.5796 -6.88726 
1734 1 1.73348 -4.26245 -5.99942 
1905 1 1.00612 -4.75764 -6.17853 
1663 1 0.848485 -3.90701 -6.10054 
3158 2 1.26372 -3.88278 -7.03767 
2048 1 2.48344 -4.59942 -6.87639 
19 1 2.08431 -3.59983 -6.55648 
701 1 2.82733 -3.75184 -6.99642 
388 1 3.98206 -3.42103 -5.88315 
2631 1 3.53205 -3.77733 -6.45101 
1085 1 3.92597 -3.37907 -7.15188 
3212 2 5.02957 -3.9169 -6.4117 
2975 2 -7.01583 -4.14138 -6.99258 
2015 1 6.54252 -4.42282 -6.08963 
1527 1 6.22109 -3.68971 -6.54682 
1459 1 -5.87028 -2.69142 -6.55331 
1450 1 -6.46622 -2.78751 6.98374 
2074 1 -6.3372 -2.14076 -6.89629 
1392 1 -5.05741 -2.29863 -6.2072 
1361 1 -4.40005 -1.87249 -6.49491 
2869 2 -3.42832 -2.83323 -5.7907 
2718 1 -2.13629 -3.2063 -6.18122 
2139 1 -2.964 -2.34985 -6.78956 
900 1 -2.29911 -1.68117 -6.92702 
594 1 -2.3918 -2.93857 -7.01947 
3332 2 -1.12402 -2.89338 -6.29565 
3234 2 -1.52873 -2.19689 -6.38597 
1074 1 0.108693 -3.08578 -5.99188 
321 1 -0.104269 -2.60928 -6.60301 
1976 1 1.85816 -2.43434 6.97612 
3347 2 1.00499 -2.60867 -6.97365 
2599 1 1.83561 -2.81594 -6.36597 
502 1 0.902793 -3.09645 -6.06345 
3503 2 1.03903 -3.26197 7.07242 
1374 1 2.52964 -2.13564 -6.55556 
308 1 2.55314 -2.91809 -7.01934 
1770 1 3.30814 -2.83272 -6.61063 
985 1 3.98714 -2.35683 -6.83803 
1897 1 3.72965 -2.63238 -5.94701 
1313 1 3.39765 -1.83581 -6.31216 
3266 2 4.88148 -3.11416 -6.29959 
2767 2 4.87707 -2.4161 -6.02472 
1372 1 5.85124 -3.14709 -7.09341 
2220 1 5.45402 -2.30271 -7.01597 
3126 2 -7.09273 -3.26676 -6.79294 
3087 2 7.0036 -2.47661 -6.55181 
802 1 6.05181 -2.83905 -6.36648 
351 1 -5.80878 -0.988991 -5.9517 
547 1 -6.43915 -1.32816 -6.53389 
923 1 -4.91467 -1.16037 -6.00536 
1800 1 -5.81382 -1.82939 -6.09481 
3097 2 -5.3881 -1.13381 -7.03766 
83 1 -5.02414 -0.337702 -5.97908 
3360 2 -5.25193 -1.85779 7.18973 
1784 1 -3.99772 -2.14001 7.15095 
395 1 -3.98028 -0.899533 -6.50135 
1315 1 -3.43662 -1.63818 -6.63152 
2549 1 -2.6526 -1.51481 -5.85569 
1370 1 -2.09474 -0.833683 -7.12664 
3105 2 -1.59891 -1.25947 -6.20684 
3200 2 -1.9574 -0.675134 -5.89502 
2108 1 -0.514339 -0.928323 -6.32477 
2589 1 -0.391158 -1.75546 -6.72929 
3151 2 0.71668 -0.983585 -6.66018 
2804 2 0.839772 -1.80879 -6.78437 
171 1 1.90275 -1.53071 -6.92542 
2178 1 1.78308 -1.64104 -6.09797 
1057 1 1.55452 -0.78935 -5.96808 
2013 1 2.6621 -1.25867 -6.2063 
296 1 3.37823 -0.773609 -6.03845 
3195 2 2.79529 -0.705666 -7.15092 
2062 1 4.2033 -1.19587 6.84781 
483 1 3.71169 -1.21095 -6.79423 
1414 1 5.86217 -2.02932 -6.1823 
656 1 4.67607 -1.84163 7.11785 
346 1 5.50068 -1.1136 -6.59581 
2840 2 6.81478 -1.59498 -6.63001 
2797 2 6.62506 -0.71858 -6.49692 
2597 1 -6.61649 -0.353343 -6.67353 
571 1 -6.73189 0.367126 -6.43772 
90 1 -6.90063 -0.0426822 -5.60998 
3127 2 -5.60535 -0.352028 -6.95085 
3007 2 -5.66492 0.433552 -7.00591 
2037 1 -5.03966 0.705039 -6.02768 
174 1 -3.3341 -0.622075 -6.11631 
2320 1 -4.43917 -0.224827 -6.62391 
2560 1 -3.54387 0.199773 -6.35259 
3329 2 -3.62793 0.641323 6.95292 
1474 1 -2.7904 -0.963136 -6.67186 
1894 1 -2.69725 -0.0500487 -6.80034 
2796 2 -1.99607 0.0892418 -5.93252 
1993 1 -0.723341 -0.173913 -6.97463 
28 1 -1.65616 0.339443 -6.89424 
3088 2 0.329912 -0.343894 -6.56811 
154 1 -0.888353 -0.118823 -6.10962 
925 1 1.69843 -0.449175 -6.68726 
1837 1 1.7711 0.196015 -6.1934 
859 1 2.45377 -0.312629 -5.99762 
530 1 2.99034 0.358562 -5.95845 
2960 2 2.53235 -0.0014964 -7.10873 
2730 1 3.54943 -0.0539415 -6.4132 
970 1 3.38609 1.06998 -6.43566 
2183 1 4.28648 0.495438 -6.71734 
2535 1 4.74915 -0.713054 -7.00677 
377 1 5.18624 0.106015 -7.03658 
1788 1 5.885 -0.326923 7.19896 
3135 2 6.53785 -0.0390025 -6.17816 
3465 2 -6.04517 1.88737 -6.41536 
3140 2 -5.96678 1.14561 -6.66703 
625 1 -4.96513 1.55911 -6.07991 
2386 1 -4.59261 0.660086 -6.77743 
1607 1 -4.21173 1.12581 -6.19169 
3093 2 -3.76008 2.06572 -6.8205 
1986 1 -3.42956 1.39093 -5.80326 
561 1 -3.01459 0.843248 -6.43519 
2508 1 -1.5279 1.19397 -6.93834 
640 1 -0.889429 0.908476 -6.14912 
731 1 -0.914559 0.699286 -6.89311 
1933 1 -0.91637 2.067 -6.94168 
3311 2 0.280403 0.435764 -6.61922 
2928 2 0.17528 1.19954 -6.35368 
693 1 1.25652 0.585224 -6.90175 
84 1 1.17114 1.68619 -6.7558 
1432 1 1.3854 1.23731 -6.02592 
1828 1 0.967814 1.29017 6.92591 
3459 2 2.53711 0.797811 -7.1534 
3393 2 2.22958 1.52555 -6.98541 
1997 1 2.2379 1.01879 -5.9825 
2276 1 4.71903 1.26564 -6.41962 
2380 1 3.57224 1.48363 -7.11837 
1176 1 4.21893 1.89042 -6.49635 
1185 1 5.48115 1.02094 -7.05796 
339 1 -7.13075 1.23203 -6.38832 
3038 2 6.31774 0.785436 -6.16578 
2072 1 6.55887 1.33346 -6.96779 
2736 2 -6.30988 2.4425 -6.09291 
2594 1 -6.96008 2.89439 -6.92188 
2690 1 -6.8551 2.08756 -7.18578 
2010 1 -5.11463 2.36766 -6.66607 
1238 1 -4.18054 1.96925 -5.75634 
2783 2 -4.03912 2.69345 -6.79042 
2523 1 -2.61891 1.64053 -6.86572 
1543 1 -2.8372 2.28475 -6.28975 
883 1 -2.10294 2.97967 -6.42493 
343 1 -2.73191 2.53513 -7.16437 
803 1 -3.14498 2.97879 -6.07504 
1623 1 -1.8211 2.22096 -6.59575 
323 1 -0.663608 2.88921 -6.99701 
3078 2 0.291135 1.95072 -6.15907 
1877 1 0.249298 2.89987 -7.00185 
3444 2 -0.0439143 2.61308 -5.95762 
1817 1 1.2304 2.48822 -6.3068 
1257 1 0.830446 3.34663 -6.44608 
3478 2 2.16175 3.00485 -6.5204 
3417 2 2.34673 2.22372 -6.73299 
1889 1 3.36871 2.38845 -7.01246 
865 1 4.90996 2.61031 -6.18298 
1066 1 3.9381 2.54771 -6.19492 
1883 1 5.45757 1.93727 -6.70472 
1515 1 4.64557 3.46772 -6.11257 
2305 1 5.52021 3.02976 -6.79902 
404 1 6.31203 3.14866 -6.52451 
1229 1 6.9748 2.24445 -6.48418 
1927 1 6.27536 2.29536 -6.84899 
3238 2 -6.17915 3.32932 -6.12389 
3045 2 -6.29314 4.10794 -6.05285 
1833 1 -5.28627 4.15388 -6.42644 
141 1 -5.30842 3.14172 -6.48781 
99 1 -5.19774 3.98558 7.06955 
3408 2 -4.03008 3.45001 -6.76847 
3411 2 -4.15078 4.22325 -6.66898 
1523 1 -2.91233 3.36005 -6.77986 
287 1 -2.11871 4.10383 -6.41962 
2376 1 -2.17225 4.88865 -6.21416 
1631 1 -2.92451 4.3347 -6.75073 
1308 1 -1.35248 3.1747 -6.47336 
345 1 -1.22799 4.22134 -6.49352 
2522 1 -0.742646 3.90339 -7.0215 
1639 1 0.141004 3.87843 -6.83841 
3138 2 1.86638 4.5339 -6.36756 
3466 2 1.92534 3.70138 -6.29255 
1113 1 3.06915 3.39252 -6.86931 
1923 1 2.85869 4.19665 -6.66444 
295 1 3.26932 4.03014 -5.9745 
2092 1 3.64885 3.30637 -6.13807 
1338 1 4.20596 3.90692 -5.5493 
3215 2 4.15692 4.52273 -6.77625 
16 1 5.44814 3.89528 -6.59886 
213 1 5.34956 4.63636 -6.97441 
112 1 6.27588 4.12227 -6.61088 
122 1 6.90204 3.60964 -6.69486 
2308 1 -6.18356 4.4 -7.16382 
2045 1 -6.44067 5.21213 -6.91443 
3147 2 -6.50761 4.94418 -5.82569 
1134 1 -5.36871 4.93375 -5.77667 
2268 1 -5.27087 4.90209 7.1107 
3471 2 -4.35154 4.97811 -6.44317 
2832 2 -2.27025 5.52894 -7.0773 
964 1 -3.1902 4.76217 -6.10899 
2839 2 -1.96395 4.90421 7.09803 
2514 1 -3.2971 5.54545 -6.54671 
597 1 -1.20565 5.16108 -6.5544 
324 1 0.0846426 5.41506 -6.61469 
1521 1 -0.402047 4.78317 -6.62108 
1016 1 0.867767 4.95972 -7.14316 
2831 2 1.57933 5.22299 -6.1925 
290 1 0.85453 5.84065 -6.98333 
372 1 2.94307 4.90117 -6.27491 
96 1 2.71945 5.54183 -6.69607 
2790 2 3.92936 5.37826 -6.71269 
1584 1 5.46379 5.12817 -6.33013 
2088 1 4.83671 5.72661 -6.11075 
805 1 4.87586 4.54126 -6.02564 
684 1 5.02293 5.56794 -7.05639 
2142 1 6.38314 4.92878 -6.32208 
248 1 6.56516 5.74443 -6.0893 
66 1 7.15399 5.50163 -6.70573 
1413 1 7.07798 4.53421 -6.77471 
2206 1 -6.67492 -7.06155 -6.39878 
2573 1 -6.58764 6.27952 -6.72628 
1481 1 -5.5075 5.42426 -6.72814 
3150 2 -4.61089 6.66947 -6.04036 
1004 1 -5.82973 7.00777 -6.44887 
3463 2 -4.39765 5.88571 -6.3865 
1885 1 -5.67428 6.14378 -6.21444 
2459 1 -3.62991 6.33086 -6.85186 
2332 1 -3.56463 5.99067 -5.67852 
1140 1 -3.76639 -6.87921 -6.58451 
3268 2 -2.49506 6.93472 -6.79336 
3454 2 -2.38487 6.18548 -6.92304 
1634 1 -0.599637 6.93819 -6.29612 
948 1 -1.14377 6.12895 -6.89289 
786 1 -1.43024 7.00566 -6.99359 
215 1 -0.547638 5.88952 -6.46312 
1333 1 0.12505 6.44346 -6.41222 
2415 1 0.706352 7.11316 -6.68408 
2899 2 1.51672 6.02784 -6.14231 
430 1 1.26116 6.64288 -7.14268 
546 1 2.70884 6.3489 -6.34597 
2168 1 2.583 -7.06593 -6.25884 
1261 1 2.15152 6.17832 -7.06627 
3587 2 3.65752 7.07249 -6.53487 
3569 2 3.82344 6.21903 -6.71907 
1295 1 5.00219 6.34151 -6.69504 
244 1 5.79055 6.17999 -6.23369 
274 1 6.88562 6.31506 -6.54991 
2521 1 -5.90354 -6.11769 -5.19805 
355 1 -5.91296 -7.01789 -4.75863 
2828 2 -7.17746 -6.4038 -5.2845 
3487 2 -7.16561 -7.14543 -5.41357 
3520 2 -4.90925 -6.1091 -5.7669 
1551 1 -5.24426 -6.12944 -4.56725 
278 1 -4.16452 -6.88621 -5.03569 
2453 1 -2.91905 -6.35777 -5.23418 
2350 1 -2.45005 -5.38767 -4.95854 
101 1 -3.05876 -7.04281 -5.65701 
104 1 -2.04557 -7.05739 -5.63772 
1643 1 -1.97059 -6.12229 -5.7011 
3594 2 -1.17929 -6.42907 -4.94837 
2429 1 0.231074 6.9483 -5.76774 
1567 1 -0.723284 -5.89828 -5.93222 
1107 1 0.0791917 -6.39296 -5.16056 
1196 1 0.249363 -7.18721 -4.69902 
2826 2 1.08471 -6.0366 -5.521 
3128 2 1.18696 -6.84238 -5.72384 
1998 1 2.02618 -6.0551 -4.74808 
2379 1 2.10889 -5.74048 -5.89425 
2113 1 2.81504 -5.69064 -5.08112 
696 1 2.04658 -6.939 -4.89539 
1382 1 3.38976 -6.68551 -5.3587 
2564 1 2.44864 -6.47175 -5.58803 
795 1 4.35029 7.17242 -5.54506 
2256 1 4.06498 -6.25662 -5.47137 
2414 1 3.89079 7.14262 -4.79707 
209 1 5.70445 -6.65651 -5.75715 
3290 2 5.07503 -6.95796 -4.74668 
168 1 6.16965 -6.19316 -5.12218 
2574 1 6.26583 7.16041 -5.2337 
318 1 -6.35036 -5.27797 -5.22553 
3416 2 -5.28151 -5.43327 -5.8859 
587 1 -5.74526 -5.37487 -4.5878 
262 1 -4.08936 -5.00192 -5.41872 
2248 1 -4.15195 -6.07765 -4.97395 
1465 1 -3.4166 -5.49774 -5.28034 
658 1 -2.34952 -4.82686 -5.41579 
1470 1 -3.14528 -4.49536 -4.89801 
3322 2 -1.15163 -5.73827 -4.99224 
3480 2 -1.38421 -5.10801 -4.82439 
798 1 -0.182241 -5.25102 -5.39773 
2038 1 0.0214614 -5.66591 -4.62527 
2626 1 -0.158746 -4.6021 -4.74339 
3068 2 1.01893 -5.3703 -5.08973 
2623 1 1.99001 -4.97428 -5.34966 
799 1 2.12573 -5.27786 -4.55551 
847 1 3.47211 -5.15403 -4.67834 
1075 1 3.93246 -5.24461 -5.46869 
1695 1 3.60548 -4.29163 -4.48373 
589 1 4.18669 -4.31812 -5.58002 
281 1 5.27168 -5.97497 -5.63047 
1034 1 5.05262 -4.96019 -5.54614 
190 1 5.80708 -5.40873 -4.78049 
1526 1 5.83022 -4.78805 -5.64134 
144 1 6.03606 -5.5941 -5.88998 
3010 2 7.07659 -5.64798 -5.08624 
3080 2 6.84973 -4.75358 -5.07819 
1078 1 -6.4545 -4.42257 -5.16913 
472 1 -6.65125 -3.31161 -4.60467 
2106 1 -6.96876 -3.69486 -5.4798 
3325 2 -5.31653 -4.78474 -5.62155 
1144 1 -4.53563 -4.53133 -4.87195 
2912 2 -5.34837 -3.92258 -5.45613 
874 1 -4.2466 -3.80782 -5.66899 
1979 1 -3.8948 -4.05965 -4.87555 
392 1 -4.57278 -3.54765 -4.50703 
1928 1 -2.93024 -3.5668 -4.76055 
1836 1 -1.54898 -4.19253 -5.56876 
2439 1 -2.39588 -3.9847 -5.17406 
2238 1 -0.757137 -4.32103 -5.36463 
250 1 -1.24795 -3.45505 -5.24255 
2520 1 -0.522328 -2.92149 -5.42697 
1210 1 -0.270166 -3.8002 -5.77716 
3227 2 0.573246 -3.93435 -5.02533 
842 1 -0.530865 -3.81466 -4.63355 
2768 2 0.839754 -4.63088 -5.16552 
393 1 1.80768 -3.91364 -5.03145 
1611 1 1.56855 -3.49572 -5.74307 
1863 1 2.67759 -4.40898 -4.45052 
3249 2 2.9181 -4.30465 -5.53179 
3014 2 2.79579 -3.59528 -5.68249 
1859 1 3.85703 -3.71975 -4.99971 
734 1 5.56938 -4.43295 -4.7232 
1472 1 4.95886 -4.12894 -5.27203 
153 1 5.00266 -3.41104 -5.12491 
452 1 5.84768 -3.89598 -5.63212 
1325 1 6.7247 -3.42877 -5.76193 
3173 2 6.63615 -4.07183 -4.74875 
1282 1 -6.90782 -2.65326 -5.23412 
2641 1 -6.39062 -2.73936 -5.91686 
1151 1 7.11222 -1.87169 -5.08487 
2737 2 -5.57069 -3.18423 -5.20466 
2890 2 -5.71272 -2.33339 -5.04793 
1285 1 -4.44527 -2.827 -5.72605 
1671 1 -4.42607 -2.91408 -4.8875 
477 1 -3.6194 -3.11413 -4.71316 
2844 2 -3.71329 -1.90168 -5.63087 
2543 1 -2.62918 -2.55159 -5.03403 
1738 1 -2.63204 -2.37436 -6.04314 
1722 1 -2.12538 -3.12913 -5.36033 
527 1 -1.33408 -2.4595 -5.21204 
2465 1 -2.10986 -2.06931 -5.43973 
3430 2 0.632762 -3.21968 -4.89582 
3354 2 0.332411 -2.49082 -4.76177 
139 1 -0.490052 -2.17725 -5.68992 
2558 1 1.39491 -2.39754 -5.62629 
2105 1 0.445282 -2.15918 -5.83764 
665 1 2.45299 -2.66217 -4.35848 
2830 2 2.79925 -2.83493 -5.67941 
3356 2 2.48486 -2.15661 -5.40002 
480 1 3.29767 -2.81247 -4.67108 
2407 1 3.5455 -1.97833 -5.41512 
2617 1 4.47445 -2.03631 -4.9718 
2411 1 4.15901 -2.73984 -5.06849 
2211 1 5.42678 -2.68167 -5.02119 
2721 1 5.84741 -3.12563 -5.66801 
148 1 5.82646 -1.99898 -5.34229 
1354 1 6.60091 -2.59589 -5.49811 
670 1 -6.71513 -1.90781 -5.81097 
2126 1 -6.91372 -1.0736 -5.80564 
2974 2 -6.07966 -1.52473 -4.96431 
2993 2 -6.20861 -0.713645 -4.87799 
1087 1 -5.08366 -1.06076 -5.1522 
1445 1 -4.82824 -1.93405 -5.46257 
2578 1 -4.72061 -0.492085 -4.40278 
3543 2 -3.97429 -1.10516 -5.43181 
1316 1 -4.60912 -2.13601 -4.69306 
1457 1 -2.79099 -1.05999 -5.24174 
1790 1 -2.98091 -1.73011 -4.83551 
580 1 -3.04716 -0.466749 -4.84077 
1953 1 -1.91347 -1.47222 -4.97661 
1380 1 -1.02279 -1.70495 -5.30033 
1880 1 -1.2842 -0.0473147 -4.86915 
2057 1 -0.155384 -1.40966 -5.73156 
1812 1 -0.867974 -0.709575 -5.17923 
1843 1 1.23255 -1.89041 -4.98249 
984 1 0.983904 -1.19397 -5.48987 
3557 2 2.24653 -1.4825 -4.97905 
3449 2 2.11076 -0.757445 -4.98676 
3550 2 4.61495 -1.52417 -6.02545 
169 1 3.31222 -1.93336 -4.54128 
110 1 3.46206 -1.15925 -5.36136 
2972 2 4.41638 -0.667727 -5.80089 
823 1 4.1714 -1.15231 -4.78483 
2360 1 5.19043 -1.58071 -4.77948 
1648 1 5.79284 -0.972768 -5.70998 
1364 1 5.24271 -0.737709 -4.94116 
1331 1 6.88923 -0.839167 -5.25615 
1207 1 6.51977 -1.60514 -5.5873 
3267 2 -6.33765 0.0584864 -4.6474 
1369 1 -6.00102 -0.0271412 -5.8404 
3186 2 -6.28083 0.812741 -4.59492 
1001 1 -5.25263 -0.123569 -5.0942 
3256 2 -4.13251 -0.193872 -5.37681 
3144 2 -4.0662 0.573563 -5.21639 
743 1 -3.01218 0.0804612 -5.73414 
2077 1 -1.991 -0.539019 -4.81727 
2601 1 -2.47867 0.224551 -4.80658 
1002 1 -2.33594 1.33518 -4.58855 
857 1 -0.826759 0.443982 -5.40734 
851 1 0.116296 0.710391 -5.35309 
1484 1 -0.136905 -0.449124 -5.4362 
1777 1 0.916774 0.893687 -5.32883 
603 1 1.02225 0.245266 -5.80513 
3383 2 2.01682 0.0169155 -4.89484 
607 1 0.668468 -0.403429 -5.33212 
1830 1 3.20935 -0.293069 -5.24095 
414 1 3.13132 0.458909 -5.0104 
2995 2 4.42861 -0.00963458 -5.51545 
1237 1 3.35771 -0.77754 -4.56922 
1322 1 5.38436 -0.27405 -6.27611 
873 1 5.58177 0.316144 -5.20972 
850 1 4.82274 0.00798393 -4.50802 
1340 1 6.3262 -0.261329 -5.16057 
2584 1 6.72404 0.604533 -5.14018 
385 1 -6.89423 0.779764 -5.6144 
2383 1 -6.0399 0.944135 -5.57603 
1483 1 -5.21177 0.704526 -5.12075 
521 1 -5.46797 1.56549 -5.33209 
500 1 -5.39071 1.4651 -4.32546 
2861 2 -4.24867 1.19057 -4.8447 
1745 1 -3.20321 1.86695 -5.21076 
3062 2 -4.52907 1.95781 -4.76221 
330 1 -3.01299 0.861689 -5.14665 
3117 2 -2.24324 2.27715 -5.34584 
2490 1 -2.72214 2.22926 -4.39253 
1978 1 -1.07134 1.91341 -5.97333 
2939 2 -1.96363 0.816139 -5.77555 
2846 2 -2.10942 1.56564 -5.74082 
2529 1 -1.25181 1.2382 -4.92979 
400 1 -0.680092 1.25126 -5.4138 
2708 1 0.0561956 1.602 -5.10158 
1618 1 1.00841 1.7929 -5.27082 
3241 2 1.94721 1.48673 -4.639 
3443 2 1.86381 0.671512 -4.93631 
47 1 3.02547 1.28173 -5.44038 
673 1 2.32571 1.91735 -5.59754 
2637 1 3.03026 1.32712 -4.57394 
3317 2 4.17937 0.703646 -5.49485 
2848 2 3.98789 1.767 -5.30876 
2327 1 5.30962 0.658228 -6.09164 
899 1 5.09833 1.12362 -5.12951 
2297 1 6.95258 1.44092 -5.24537 
140 1 5.95205 1.08181 -5.08914 
3060 2 6.0823 1.74755 -5.87779 
2151 1 -6.82868 1.73332 -5.66912 
806 1 -6.1904 1.86821 -5.21484 
297 1 -6.50144 2.90377 -5.11435 
491 1 -5.31995 3.15588 -5.45439 
1318 1 -5.33269 2.38011 -5.69431 
928 1 -5.81636 2.40569 -4.77738 
1335 1 -4.62986 2.78418 -5.87629 
2845 2 -4.55619 2.66307 -4.77862 
2436 1 -3.61443 2.58019 -5.62921 
2945 2 -2.29451 2.99506 -5.30375 
2977 2 -2.55013 3.72618 -5.3926 
818 1 -1.31192 2.73931 -5.64071 
2285 1 -1.27756 2.28769 -4.74248 
1661 1 -0.613814 2.01647 -5.14781 
75 1 -0.0591499 2.8801 -4.80329 
867 1 1.60088 2.25629 -5.57429 
1375 1 0.708804 2.52081 -4.89399 
614 1 1.02933 3.04016 -5.5712 
268 1 3.09867 2.73682 -5.87274 
221 1 3.11843 1.8859 -6.11995 
946 1 2.82326 2.26961 -4.99318 
588 1 2.07772 2.83468 -5.13817 
3364 2 3.84929 2.53629 -5.05654 
3388 2 3.66373 3.29812 -4.84281 
2066 1 4.82347 2.70711 -5.30093 
2130 1 4.9328 1.82551 -5.61915 
1402 1 5.35618 1.89597 -4.88451 
2231 1 5.40317 2.72262 -4.50338 
817 1 7.14427 2.35519 -5.03231 
3414 2 6.22116 2.42625 -5.57423 
3298 2 5.85231 3.07927 -5.5709 
2200 1 -6.74467 3.86777 -5.09584 
1882 1 7.10402 4.57137 -4.9545 
443 1 -5.4241 4.1656 -5.35858 
1862 1 -4.74794 3.68251 -5.7487 
1224 1 -3.91034 3.37493 -5.65665 
1725 1 -3.76158 4.35322 -5.17237 
1619 1 -3.44676 4.02894 -5.90186 
2275 1 -3.42591 3.44269 -4.99194 
2865 2 -2.45775 4.14541 -4.64665 
3458 2 -2.73013 4.61579 -5.1881 
1486 1 -1.46369 3.64963 -5.77542 
2326 1 -1.28201 3.90895 -4.90069 
1198 1 -1.06914 3.19233 -4.98109 
159 1 -1.69488 4.47264 -5.61077 
620 1 0.464842 3.74515 -4.99824 
2813 2 -0.328959 3.35075 -5.89712 
3378 2 -0.42226 4.15672 -5.7552 
1744 1 0.159767 4.39785 -4.72436 
1098 1 1.70141 3.62446 -5.18583 
1763 1 0.785856 4.01759 -5.80894 
225 1 1.33476 4.38202 -5.32184 
504 1 2.81558 3.47411 -5.67038 
441 1 2.41122 3.98804 -5.04607 
1247 1 2.67104 4.58196 -5.5023 
3433 2 3.50558 4.07633 -4.61829 
1513 1 4.4756 4.48758 -5.00904 
862 1 3.65893 4.74625 -5.78315 
1398 1 4.90333 3.63512 -5.07438 
2917 2 5.84024 3.87777 -5.58817 
2927 2 5.73163 4.66228 -5.45764 
131 1 6.9284 4.18974 -5.86808 
115 1 7.17617 2.93311 -5.8907 
13 1 7.02946 3.50342 -5.40496 
2440 1 6.37703 4.04473 -4.67197 
822 1 -6.02261 4.12527 -4.55599 
1939 1 -6.81638 5.22032 -4.53641 
3330 2 -6.63952 5.83065 -5.65776 
1490 1 -5.77148 5.77155 -4.69178 
1965 1 -5.95023 4.90231 -5.00324 
59 1 -4.44981 4.60055 -5.45652 
1246 1 -5.35397 5.71942 -5.40076 
1232 1 -4.52817 5.51454 -5.26462 
1691 1 -3.75682 5.31585 -5.27522 
2988 2 -2.62577 5.29722 -4.82267 
1652 1 -2.71233 5.70404 -5.88176 
1499 1 -1.81973 5.25236 -5.52253 
3207 2 -0.662053 5.55802 -5.43522 
1640 1 -1.58478 5.9596 -4.69393 
2632 1 0.0479285 5.11423 -4.42414 
894 1 0.22821 5.92338 -4.72592 
3392 2 -0.574285 4.85448 -5.45669 
1505 1 0.481537 5.16162 -5.87265 
103 1 0.58854 4.43363 -6.4595 
2598 1 0.745978 4.95376 -4.9947 
23 1 1.90461 4.99728 -5.03657 
492 1 2.57389 5.58437 -5.76157 
2894 2 3.36091 5.02287 -4.66598 
302 1 4.28555 5.11157 -5.55812 
839 1 4.36717 5.38667 -4.71764 
3257 2 5.60496 5.21916 -5.09938 
1667 1 6.75289 5.02212 -5.48971 
2703 1 6.80902 5.70167 -5.05056 
2747 2 -6.89039 6.5404 -5.57639 
1616 1 -5.72867 6.76146 -5.3168 
2318 1 -4.81738 6.30562 -5.02838 
1872 1 -4.96983 -6.94977 -4.8581 
1733 1 -3.41249 6.74796 -6.14519 
1893 1 -3.82852 6.68451 -5.31153 
1394 1 -2.67504 6.50274 -5.80496 
3265 2 -2.95395 6.0924 -4.67211 
1577 1 -1.95534 6.49144 -5.42593 
1665 1 -1.67622 5.91551 -6.1026 
3455 2 -0.938378 -7.18686 -5.06716 
3018 2 -0.81723 6.4101 -5.31599 
2630 1 0.443459 5.94611 -5.85632 
2096 1 0.861858 6.71052 -4.9927 
2978 2 1.49111 6.92025 -5.94438 
825 1 1.14727 5.80342 -5.04006 
586 1 2.04406 6.11249 -5.16082 
1838 1 2.51407 6.81103 -5.44505 
486 1 3.44454 5.61114 -5.66351 
1992 1 4.54135 6.41211 -5.92266 
224 1 3.39965 6.78553 -5.46934 
2669 1 4.21073 5.96024 -5.24582 
2971 2 5.42648 5.89341 -5.10538 
2926 2 5.2549 6.69331 -5.02525 
1320 1 6.424 7.03656 -6.16336 
2539 1 6.33666 6.31669 -5.4412 
1994 1 -6.53717 -6.32672 -4.43086 
929 1 -6.89584 -6.02064 -3.69935 
3228 2 -5.58166 -6.61947 -3.64267 
3469 2 -5.47917 6.99657 -3.80699 
1864 1 -4.39678 -6.64719 -4.25447 
3413 2 -3.23147 -6.91269 -4.29536 
3562 2 -3.16837 -6.2293 -4.20426 
1187 1 -4.40442 -6.59711 -3.41755 
2283 1 -2.24317 -6.22205 -4.86482 
2496 1 -2.50015 -6.38882 -3.47144 
356 1 -1.7425 -6.09507 -4.02945 
2524 1 -0.837868 -5.99809 -3.42582 
1881 1 -0.493536 -6.12703 -4.19091 
3236 2 0.795086 -6.90532 -3.42332 
2587 1 -0.401214 -6.63345 -2.92905 
635 1 0.597857 -6.23418 -4.41732 
2969 2 0.446285 -6.24214 -3.33916 
2080 1 -0.336384 -6.9818 -3.91605 
849 1 1.32309 -6.85303 -4.48327 
1211 1 1.52437 -6.14261 -4.02783 
3497 2 2.74262 -6.36533 -3.96247 
2172 1 4.06682 -6.86557 -4.15988 
2566 1 3.7364 -6.74211 -3.33335 
1848 1 3.69376 -6.09134 -4.59997 
924 1 4.70688 -6.46732 -3.69547 
811 1 4.69848 6.97008 -3.82462 
1442 1 5.501 -7.04033 -3.53759 
2825 2 4.96551 -6.23473 -4.73023 
1968 1 5.66739 6.89361 -2.67373 
1000 1 7.00997 -6.68322 -4.04094 
2462 1 6.27884 -6.62094 -4.44185 
1312 1 -6.55969 -5.32344 -4.29645 
2896 2 -5.95173 -4.91422 -3.29 
1013 1 -6.99037 -5.11233 -3.45115 
3375 2 -5.71121 -5.8341 -3.60852 
1299 1 -4.76449 -5.30165 -4.87698 
517 1 -4.71532 -4.77894 -2.96689 
138 1 -4.62408 -5.75808 -4.06639 
3536 2 -3.45776 -5.33224 -4.0874 
1086 1 -2.30285 -5.54677 -4.00371 
959 1 -2.62153 -4.63194 -4.1963 
2272 1 -2.65882 -5.49564 -3.23114 
647 1 -1.48568 -5.36121 -3.61798 
6 1 -0.943182 -4.77927 -3.58816 
1747 1 -0.539599 -5.12461 -4.25393 
1425 1 1.52538 -5.33595 -4.03953 
1967 1 1.73784 -4.48772 -4.43109 
1511 1 1.68855 -5.90906 -3.00173 
1327 1 1.27795 -5.23905 -3.22867 
26 1 0.660937 -5.26319 -4.10005 
3303 2 2.61728 -5.58375 -3.64846 
2918 2 2.36515 -4.95862 -3.3807 
2469 1 3.5774 -4.91008 -3.73273 
709 1 3.98051 -5.71385 -3.60875 
451 1 4.24725 -4.69719 -3.05522 
3340 2 4.75697 -5.43603 -4.56504 
1493 1 5.57735 -5.41512 -3.72649 
779 1 5.76299 -6.18889 -3.84232 
2571 1 6.60708 -5.66991 -4.14491 
85 1 6.13316 -4.89215 -3.99854 
831 1 -6.59089 -4.48212 -4.34741 
1182 1 -6.94909 -3.82281 -4.02817 
935 1 -5.91483 -3.53872 -4.3492 
335 1 -5.63817 -4.39313 -4.45283 
1609 1 -4.83441 -4.87992 -3.91732 
572 1 -5.03326 -3.98789 -3.97529 
3376 2 -3.83366 -4.56821 -3.92461 
3083 2 -3.86583 -3.76537 -3.74173 
2083 1 -2.7951 -3.90775 -4.03272 
322 1 -2.55606 -3.97953 -3.28144 
401 1 -2.135 -4.79799 -3.53091 
3285 2 -1.55521 -4.40251 -4.49944 
728 1 -0.610453 -3.90234 -3.79895 
2916 2 -1.73806 -3.66603 -4.10069 
1629 1 -1.69572 -4.06193 -3.25294 
1945 1 0.287729 -4.53798 -4.12087 
2491 1 0.315843 -3.65566 -3.88906 
1799 1 1.10127 -4.43253 -3.88757 
247 1 1.34504 -3.62368 -4.25091 
632 1 0.895986 -2.94124 -3.56318 
40 1 2.36328 -3.52243 -4.50876 
3379 2 2.38936 -4.07145 -3.39872 
3230 2 2.12537 -3.30346 -3.4203 
1215 1 3.2069 -3.59247 -4.50173 
891 1 3.59132 -3.98634 -3.6254 
2857 2 4.54078 -3.63885 -4.08679 
3244 2 4.64401 -4.65045 -4.24101 
2336 1 5.7348 -4.16775 -3.86773 
72 1 5.69244 -3.60546 -4.50272 
1145 1 6.94422 -4.52394 -3.87124 
316 1 6.40464 -3.72088 -3.62238 
523 1 -6.60931 -2.6576 -4.07316 
1999 1 -5.84642 -2.43943 -4.01422 
2388 1 -5.19782 -3.09101 -3.95392 
1428 1 -6.13176 -1.6521 -3.86051 
3229 2 -4.06152 -3.06025 -3.56271 
3447 2 -4.26683 -2.33523 -3.64666 
2400 1 -3.54338 -2.23537 -4.47718 
1835 1 -3.09781 -2.21799 -3.73959 
1446 1 -3.01181 -2.96261 -4.15243 
15 1 -0.949294 -3.06714 -3.52524 
2766 2 -1.98232 -2.24446 -4.01093 
1028 1 -1.23215 -2.29455 -3.22447 
3198 2 -1.84421 -2.91259 -4.35066 
2241 1 -1.09019 -2.2924 -4.39083 
2044 1 -0.083896 -2.78147 -3.74766 
871 1 -0.633509 -2.99449 -4.5342 
2395 1 -0.582955 -1.97998 -3.72277 
2306 1 1.82876 -3.04932 -4.92219 
27 1 1.47817 -2.4452 -4.25044 
566 1 0.711293 -2.05765 -3.65542 
3015 2 1.87012 -2.55571 -3.06743 
1385 1 3.24323 -3.21121 -3.74826 
303 1 2.0877 -1.87579 -4.14322 
506 1 3.03404 -2.3678 -3.81809 
3353 2 4.16997 -2.81599 -3.86802 
3134 2 4.19543 -2.06038 -3.78146 
2507 1 5.76405 -3.05268 -3.64116 
1658 1 5.16551 -2.65096 -4.26977 
844 1 5.28036 -2.43843 -3.25667 
2858 2 6.64313 -3.1986 -4.55462 
3116 2 6.43742 -2.43408 -4.35602 
2432 1 7.12315 -2.07127 -3.54278 
960 1 -6.93189 -1.95604 -4.29377 
1841 1 -6.5269 -0.888023 -3.70152 
1027 1 -5.13117 -1.9561 -4.17444 
1514 1 -5.3917 -1.16892 -4.11101 
2302 1 -3.34349 -1.4289 -3.39106 
3470 2 -4.53148 -1.65476 -3.34288 
2674 1 -3.58096 -1.34883 -4.30223 
2278 1 -4.53731 -1.34747 -4.56693 
2132 1 -3.77277 -0.60974 -4.23055 
3059 2 -4.56226 -0.818885 -3.26844 
2748 2 -2.44476 -1.42499 -3.9899 
969 1 -1.33206 -1.57592 -3.58257 
1531 1 -1.21219 -1.25576 -4.45175 
3585 2 0.0467908 -1.67245 -4.67036 
2 1 -0.340879 -0.901803 -3.28801 
202 1 0.60497 -1.00548 -3.5668 
922 1 1.31679 -1.44772 -4.18338 
2298 1 0.988344 -0.741601 -4.56676 
876 1 2.72546 -1.28595 -4.03327 
270 1 2.69227 -0.414564 -2.96827 
2914 2 3.80568 -1.32632 -3.50545 
1548 1 5.25935 -1.78015 -3.92133 
2087 1 4.78884 -1.03027 -3.20845 
194 1 -7.10536 -1.27526 -4.51274 
2054 1 6.91754 -1.15335 -3.44983 
2856 2 6.22212 -1.59726 -4.30642 
34 1 6.28947 -0.924274 -2.9036 
1684 1 7.10072 -0.321601 -3.71188 
2300 1 -6.88023 0.921683 -3.51473 
1913 1 -6.52119 0.0287075 -3.60557 
493 1 -4.97009 0.477735 -4.26865 
1627 1 -5.53098 -0.199398 -3.97446 
56 1 -5.78622 0.82119 -3.53685 
2605 1 -3.30048 0.38221 -4.15466 
1815 1 -4.11966 0.25149 -4.14667 
827 1 -3.52799 0.396713 -3.07327 
2789 2 -2.50728 -0.666486 -3.85028 
3490 2 -2.28653 0.306428 -3.69782 
1910 1 -1.75008 0.500029 -4.7332 
2540 1 -0.537118 -0.0972136 -3.30142 
1706 1 -1.16558 -0.362961 -3.96414 
3500 2 -0.104448 -0.813629 -4.3393 
3555 2 -0.253075 0.110795 -4.31104 
2020 1 0.794139 -0.0477148 -3.66509 
2187 1 1.46767 -0.382104 -3.90226 
858 1 0.871498 0.363465 -4.51209 
1700 1 2.07536 -0.949693 -3.81197 
130 1 2.71112 -0.371453 -4.00632 
886 1 2.27832 0.393902 -3.84396 
1895 1 4.93904 -0.152706 -3.61618 
3483 2 3.557 -0.579147 -3.38503 
1911 1 3.96146 -0.131419 -4.46837 
941 1 3.81512 0.778605 -4.32376 
234 1 4.62744 -0.954573 -4.12111 
2902 2 6.01513 -0.728201 -4.13721 
2819 2 5.95771 0.17565 -3.97526 
1568 1 6.88152 0.569651 -4.3791 
253 1 7.06233 -0.424855 -4.58743 
654 1 6.82108 0.511461 -3.27341 
3263 2 -6.7018 1.42287 -4.30913 
896 1 -6.82444 1.65779 -3.08493 
408 1 -5.89485 1.68682 -3.55547 
1793 1 -4.77451 1.18621 -3.77844 
2541 1 -4.74085 2.09084 -3.58385 
697 1 -3.0761 1.22928 -4.42865 
2177 1 -3.61391 1.88655 -4.04624 
2687 1 -3.96488 0.877504 -3.65934 
3588 2 -2.42113 1.02603 -3.56669 
3120 2 -2.98414 1.4937 -3.22856 
1512 1 -1.69186 1.73959 -4.30703 
2663 1 -1.35181 0.827079 -3.9911 
3196 2 -0.437156 1.6368 -3.84761 
892 1 -1.43096 1.71411 -3.38214 
2950 2 -0.405598 0.886054 -4.12417 
1296 1 0.637677 0.87581 -3.60755 
2406 1 0.789478 1.40702 -4.43615 
2237 1 1.49379 0.753857 -3.81671 
1337 1 0.463324 1.65028 -3.15647 
1195 1 1.31705 1.82636 -3.44904 
2068 1 3.07575 0.352214 -4.20844 
2722 1 2.6428 1.25069 -3.90373 
556 1 3.75277 1.50306 -4.07637 
2021 1 4.64952 0.831326 -4.43074 
1447 1 4.60909 1.10493 -3.61166 
3209 2 5.74001 1.04452 -3.79968 
2147 1 4.62965 1.78322 -4.39143 
499 1 6.40999 1.37926 -4.32547 
510 1 6.73116 1.36931 -3.40237 
3260 2 -6.86427 2.14778 -4.08837 
3033 2 -6.62771 2.96655 -3.87795 
2751 2 -7.12974 3.31368 -4.23651 
829 1 -5.59347 2.34758 -3.99311 
412 1 -4.97358 2.93634 -3.56818 
29 1 -5.6578 3.46956 -3.92859 
2466 1 -3.45111 2.6593 -4.73554 
120 1 -3.85826 2.66765 -3.83113 
1091 1 -2.87952 3.08688 -4.33823 
353 1 -2.28145 3.49021 -3.91843 
1255 1 -1.94747 2.60774 -4.14624 
1775 1 -1.5209 3.37551 -4.30571 
2860 2 -0.511932 2.33916 -3.90772 
1971 1 0.536234 2.14922 -4.0996 
1638 1 0.305576 3.07092 -3.99542 
3063 2 1.8183 2.19645 -4.16264 
3479 2 1.4436 2.99718 -4.15618 
2575 1 1.52059 2.54952 -3.06159 
785 1 3.17741 2.08957 -4.15963 
1644 1 2.58146 2.12369 -3.49211 
1466 1 3.10309 2.82931 -3.77264 