ITEM: TIMESTEP
14300
ITEM: NUMBER OF ATOMS
3594
ITEM: BOX BOUNDS pp pp pp
-7.1983302840290300e+00 7.1983302840290300e+00
-7.1983302840290300e+00 7.1983302840290300e+00
-7.1983302840290300e+00 7.1983302840290300e+00
ITEM: ATOMS id type x y z 
1258 1 -6.99722 7.06743 -6.62931 
558 1 -6.76247 -6.48923 -6.24209 
1616 1 -6.05979 -6.94081 -6.24868 
2023 1 -5.44954 -6.35485 -6.67187 
1246 1 -4.46498 -6.12884 -6.61351 
2612 1 -3.89782 -5.86323 -5.93224 
1654 1 -3.72849 6.69606 -7.02278 
3454 2 -2.5093 7.05707 -6.58119 
3268 2 -2.39427 -6.64195 -6.31485 
26 1 -1.40575 -6.8411 -6.12591 
360 1 -1.38369 -6.00186 -6.5342 
1107 1 0.311494 -6.84179 -6.2114 
3537 2 -0.221976 -6.56626 -6.95504 
1905 1 0.674868 -5.564 -6.93833 
1582 1 -0.815423 -5.75268 -5.81744 
1088 1 0.950099 -6.28116 -6.5351 
2415 1 1.81702 -6.88638 -6.77173 
798 1 0.857076 6.92156 -6.72388 
245 1 2.54176 -6.68203 -6.40716 
2623 1 2.83013 -6.30491 7.17762 
3442 2 3.49178 -6.36788 -6.05202 
1100 1 4.51324 -6.16894 -6.83729 
209 1 4.86677 -6.76845 -6.18176 
589 1 4.60107 6.89071 -5.5698 
2812 2 5.586 -5.59173 -6.56465 
3208 2 5.81194 -6.31009 -6.70169 
1263 1 6.42411 -6.52523 -5.75107 
2009 1 6.90153 -6.60433 -6.94371 
3495 2 -6.75977 -4.53722 -7.01833 
1437 1 -6.72456 -5.7067 -6.06804 
2015 1 -6.24216 -4.93313 -5.84234 
3366 2 -6.63217 -5.41707 -7.11279 
1282 1 -5.75635 -5.4677 -6.32092 
1918 1 -5.06433 -5.63406 -6.97269 
1354 1 -5.67474 -4.82117 -6.91546 
923 1 -4.47353 -5.08623 -6.50191 
2122 1 -3.65992 -5.49357 -6.80687 
2944 2 -2.9692 -6.23439 -6.3197 
3574 2 -2.7765 -5.48847 -6.06817 
2238 1 -1.57918 -5.1445 -5.93997 
520 1 -1.86923 -5.43692 -6.77571 
3019 2 -0.623932 -4.99544 -6.71234 
1966 1 0.297948 -5.13625 6.73964 
527 1 0.600206 -4.85833 -6.54199 
3368 2 -0.524716 -5.81887 -6.90647 
40 1 1.2029 -5.44997 -6.32705 
2379 1 2.64802 -5.59533 -6.67698 
1168 1 2.5143 -4.71666 -6.73612 
1073 1 2.20655 -5.22238 -5.9013 
2957 2 3.3802 -5.43427 -5.88358 
1215 1 3.99605 -4.90016 -6.64696 
628 1 4.41966 -5.54079 -6.12199 
1695 1 4.21461 -4.3941 -5.83858 
3212 2 5.4176 -4.77289 -6.64089 
645 1 4.52292 -5.27233 -7.14449 
1954 1 6.84483 -5.93554 -6.14655 
2479 1 6.42749 -4.77261 -6.54704 
10 1 6.69559 -5.53422 -7.07251 
3029 2 -7.04574 -3.78817 -7.02884 
2975 2 7.10453 -3.01837 -6.77067 
1671 1 -5.06784 -4.21531 -6.47798 
1392 1 -5.25647 -3.45153 -6.62101 
355 1 -6.16159 -4.21486 -6.1879 
2699 1 -4.41204 -3.75416 -6.1818 
1361 1 -3.83296 -4.31859 -6.70029 
2981 2 -2.89886 -4.71399 -6.08291 
386 1 -3.01633 -3.98921 -7.06241 
2706 1 -2.273 -3.49473 -6.75031 
3061 2 -3.03828 -3.92811 -6.02005 
3484 2 -0.785345 -4.22061 -6.53688 
2808 2 -1.06358 -3.39054 -6.43076 
2549 1 -1.95185 -4.21842 -6.29961 
502 1 0.294772 -3.89111 -6.16654 
2368 1 0.311447 -4.25485 -6.92541 
579 1 1.21226 -4.38494 -6.22944 
3158 2 1.16083 -3.50355 7.07435 
2178 1 1.11985 -3.52915 -6.0912 
1425 1 2.05812 -3.77859 -6.43394 
2599 1 2.5581 -3.92985 6.90545 
1738 1 2.92292 -3.74931 -6.60694 
2631 1 4.32523 -4.21339 -7.21919 
2407 1 3.32721 -4.61839 -6.9156 
2183 1 4.66351 -3.36138 6.86572 
1976 1 3.82383 -3.91752 -6.51992 
3266 2 5.02404 -4.17256 -6.31378 
2767 2 5.08752 -3.45531 -6.32554 
802 1 6.35599 -4.02334 -5.98494 
1788 1 5.98087 -2.83608 -6.57705 
83 1 -6.1287 -3.15336 -6.47813 
2126 1 -6.51607 -2.30039 -7.11843 
2132 1 -5.61502 -2.37132 -6.32672 
1581 1 -4.77758 -2.75803 -6.21114 
1315 1 -4.40633 -2.10578 -6.73545 
1445 1 -4.23813 -3.19263 -6.72062 
1370 1 -2.8849 -2.96028 -7.09313 
433 1 -2.59875 -1.83611 7.05707 
821 1 -2.66591 -2.33034 -6.50632 
321 1 -1.91292 -2.82359 6.91647 
3332 2 -1.37906 -2.66328 -6.55311 
2589 1 0.0354555 -3.3454 -6.84989 
2480 1 -0.150044 -2.60241 -6.08121 
1767 1 0.435911 -3.11927 -5.85223 
3503 2 0.958423 -2.79868 -6.98964 
799 1 1.96554 -2.8875 -6.30021 
1635 1 2.80565 -2.78662 -6.56998 
2390 1 2.03674 -2.42969 -7.02477 
2500 1 4.20727 -3.15461 -6.84152 
388 1 3.8762 -3.19332 -5.89769 
985 1 3.63934 -2.61558 -6.42727 
3550 2 4.91453 -2.72562 -6.05171 
2254 1 6.03273 -2.67198 6.98483 
2972 2 4.69499 -1.89932 -5.9263 
3126 2 6.87419 -2.25102 -6.58194 
734 1 6.22288 -2.0148 -5.79812 
351 1 6.19671 -3.76066 -6.70357 
1340 1 -6.38168 -1.96292 -6.23009 
1369 1 -6.83966 -0.334531 -6.626 
194 1 -5.66926 -1.41693 -5.8577 
2578 1 -4.87209 -1.50371 -6.27778 
3360 2 -5.53609 -1.19333 -7.06144 
2677 1 -4.64791 -0.388591 -6.74541 
911 1 -4.02121 -1.0309 -6.62601 
1457 1 -3.10472 -0.570543 -6.48564 
2289 1 -3.47559 -1.7048 -6.82761 
395 1 -2.75218 -1.32617 -6.54947 
3234 2 -1.63068 -1.95122 -6.35377 
3105 2 -1.67031 -1.17453 -6.23927 
1094 1 -1.059 -0.702874 -7.1268 
1106 1 -0.561382 -1.33724 -6.36732 
2804 2 0.832544 -1.38225 -6.75821 
1618 1 0.459511 -1.98032 -5.78063 
1057 1 -0.747143 -0.982759 -5.45603 
3347 2 0.907927 -2.12942 -6.79934 
1837 1 1.27273 -1.47131 -5.76166 
1374 1 1.79748 -1.01201 -6.49124 
925 1 2.06183 -1.6744 -6.55275 
1834 1 2.83979 -1.86253 -6.29637 
2558 1 2.51649 -0.828544 -6.3135 
2535 1 3.71593 -1.37651 -6.60684 
483 1 3.32342 -0.404202 -6.35221 
2995 2 4.44817 -1.05424 -5.83278 
1698 1 4.98155 -1.62811 -7.07534 
377 1 5.67735 -2.05454 -6.72908 
1414 1 5.62162 -1.34573 -6.23708 
2530 1 4.79693 -0.799944 -6.87651 
3087 2 6.88849 -1.4681 -6.66244 
2840 2 6.50414 -0.848191 -6.46706 
806 1 -7.06031 0.65155 -6.52503 
3097 2 -5.75812 -0.440084 -6.85109 
3127 2 -5.77062 0.434568 -6.86585 
979 1 -4.87508 -0.184649 6.77591 
2641 1 -4.99393 -0.583431 -5.93359 
2300 1 -3.84994 -0.30408 -6.25875 
1238 1 -3.02058 -0.124979 -5.72116 
2320 1 -2.87274 0.770542 -6.60558 
1815 1 -2.5382 -0.131591 -6.84286 
1993 1 -1.1389 0.222119 -6.80238 
1116 1 -2.11029 0.643094 -7.03464 
28 1 -0.750548 0.356487 -6.06224 
3200 2 -1.87594 -0.343503 -6.06354 
2108 1 -0.752511 -0.465134 -6.30993 
3151 2 0.495506 -0.772331 -6.79256 
3088 2 0.244059 -0.0904247 -6.59304 
1938 1 1.41703 -0.468841 7.0134 
1368 1 1.5927 0.356976 -6.84872 
2960 2 2.63291 0.434451 -7.21257 
42 1 2.29585 0.0970372 -6.03448 
1241 1 1.51163 -0.215308 -6.23733 
2380 1 3.70341 0.404482 -6.60689 
2086 1 4.56845 0.140366 -6.63561 
1398 1 4.78745 0.908516 -5.9964 
263 1 5.37706 -0.398479 -6.36893 
2797 2 6.60615 -0.131663 -6.16868 
3135 2 6.26944 0.630135 -6.10609 
3140 2 -6.25246 2.00839 -6.65374 
2151 1 -6.90543 1.30491 -5.92434 
3007 2 -6.06925 1.18953 -6.66916 
1584 1 7.13881 2.0047 -6.10879 
1455 1 -7.15014 2.03702 -7.19148 
1027 1 -4.69064 0.547543 -7.01502 
2523 1 -5.18675 1.24224 -5.95598 
625 1 -5.02046 1.51265 -6.77789 
2180 1 -3.69787 0.506216 -6.30828 
2560 1 -4.14564 1.54544 -6.06072 
3148 2 -3.73693 1.19686 -7.18339 
580 1 -3.14709 0.797556 -5.69064 
2037 1 -2.52488 1.78102 -6.51332 
1265 1 -1.64163 1.32611 -6.38815 
1257 1 -1.02869 1.15292 -5.94048 
1978 1 -0.939727 1.15132 -6.82046 
3311 2 0.477404 0.528201 -6.60478 
2928 2 0.0530131 1.09628 -6.30059 
221 1 1.30654 1.25626 -6.50089 
673 1 0.993963 2.10609 -6.44866 
225 1 0.864544 1.52868 7.21597 
3459 2 2.56136 1.34053 -6.97314 
850 1 4.15464 1.04391 -6.50857 
530 1 3.06955 0.512738 -6.08905 
1176 1 3.37567 1.41145 -6.17738 
50 1 4.55299 1.81596 -6.22701 
74 1 3.48398 1.7392 6.84621 
1681 1 5.3617 0.533476 -6.70539 
1092 1 5.69229 -0.362416 -7.16856 
122 1 6.84235 1.32116 -6.81794 
3038 2 6.33132 1.40282 -5.74692 
1684 1 6.15319 1.00537 7.19441 
3465 2 -6.30715 2.60433 -6.25778 
2736 2 -6.36493 3.41768 -6.0776 
2685 1 -5.11591 2.7563 -6.72895 
3093 2 -4.02423 1.95796 -7.03569 
2783 2 -3.72623 2.64404 -6.88957 
1965 1 -3.23325 1.53281 -6.17744 
1499 1 -2.2708 3.72529 -6.11626 
732 1 -3.14269 2.60324 -6.10441 
1056 1 -2.31406 2.78465 -6.43133 
561 1 -1.58241 2.27736 -6.39 
1933 1 -1.44941 3.00115 -5.85806 
1353 1 -1.00693 2.90313 -6.73786 
3078 2 0.00812213 1.75409 -5.95033 
3444 2 -0.261168 2.53004 -5.66676 
855 1 -0.52154 2.49756 6.92283 
1525 1 0.227745 2.06456 -7.03696 
2522 1 0.78752 2.83199 -5.81177 
3417 2 1.8063 2.61863 -6.49166 
3393 2 2.25959 2.03005 -6.88099 
1286 1 3.19512 2.60046 -6.75178 
785 1 2.86754 2.19095 -6.1406 
2231 1 3.84466 2.64358 -6.12337 
565 1 3.84439 1.94347 -6.65469 
2765 2 4.25102 2.86292 7.08905 
2066 1 4.5723 2.97486 -6.2754 
2711 1 4.8749 3.7883 -6.39782 
889 1 5.32461 2.6094 -6.57221 
2377 1 6.03026 3.1776 -6.71933 
2072 1 5.92267 1.81532 -6.90339 
2305 1 6.69088 2.43393 -6.79015 
1927 1 6.80043 3.192 -6.61911 
3060 2 6.01259 2.1217 -5.75258 
3238 2 -6.65491 4.17483 -6.09091 
402 1 -5.14638 4.29518 7.01445 
718 1 -6.20098 5.09668 -6.9372 
789 1 -5.64549 4.61405 -6.23423 
2010 1 -5.34226 3.67427 -6.30739 
3408 2 -4.01599 3.35987 -6.89152 
3411 2 -4.32571 4.08659 -6.86742 
343 1 -3.23058 3.37885 -5.96083 
1894 1 -2.8927 3.56479 -6.90116 
1102 1 -2.43519 4.60822 -6.15472 
1932 1 -1.52989 3.71136 -6.48096 
474 1 -0.742646 3.92111 -6.87107 
2508 1 0.103243 4.05116 -6.75976 
1817 1 -0.0829467 3.01674 -6.8366 
2429 1 0.601803 3.69084 -6.08289 
1016 1 0.71629 5.00451 -6.75264 
3478 2 2.09458 3.33893 -6.36431 
3466 2 1.6106 3.92974 -6.39965 
430 1 2.90908 4.21725 -6.91395 
268 1 3.52196 3.44037 -6.19293 
3551 2 4.06774 3.85496 -7.11053 
404 1 5.81766 3.9641 -6.63056 
1247 1 4.50079 4.50627 -6.08403 
255 1 5.01789 4.27835 6.60783 
131 1 7.00046 2.7932 -5.99175 
1760 1 6.63037 3.84237 -6.12499 
577 1 -7.12602 3.80194 -7.01772 
1413 1 -6.67569 4.56673 7.10682 
1318 1 -5.47926 5.53235 -5.92132 
3471 2 -4.15765 4.77545 -6.60115 
2662 1 -5.35624 6.32255 -6.96246 
3463 2 -4.39614 5.49954 -6.27764 
2576 1 -3.18853 4.31824 7.16457 
989 1 -3.31157 4.30029 -6.04471 
59 1 -3.15415 4.97134 -6.59775 
3306 2 -2.26965 5.19617 6.98393 
2839 2 -2.37254 5.67078 -6.85374 
883 1 -3.26915 5.35824 -5.83379 
1623 1 -1.63329 4.66474 -6.35671 
1253 1 -1.56265 5.5626 -5.99651 
2630 1 -1.21387 5.63182 -6.91009 
849 1 -0.328921 5.03309 -6.78564 
3138 2 1.63342 4.74806 -6.17152 
2831 2 1.39868 5.5753 -6.0776 
1261 1 1.68412 5.55842 -7.06093 
1486 1 0.376714 4.60314 -6.15113 
2322 1 0.357352 5.75998 -6.68797 
1505 1 1.96162 4.74106 7.09366 
1923 1 2.66094 5.13523 -6.53585 
3223 2 3.95138 4.81769 -6.93653 
2790 2 3.78759 5.56253 -6.69447 
795 1 5.19303 4.52104 -6.95022 
274 1 5.42939 5.08056 -6.25689 
865 1 4.52114 5.48193 -5.9697 
302 1 5.05758 5.67096 -6.78031 
2594 1 6.22833 4.80327 -6.09004 
2160 1 6.98565 5.54082 -6.57201 
1879 1 -5.93133 5.72399 -6.53155 
66 1 -6.29328 6.71408 -6.55142 
2396 1 -5.46317 7.11158 -7.00151 
3477 2 -4.77956 7.14672 -5.90415 
3150 2 -4.6042 6.37974 -6.07128 
1235 1 -3.44986 6.98009 -6.2076 
1619 1 -3.55643 5.84374 -6.93349 
262 1 -4.53215 6.68907 -7.19389 
1140 1 -3.40459 6.16337 -5.87825 
2832 2 -2.55691 6.3882 -6.84643 
345 1 -1.22997 6.50032 -7.16823 
2326 1 -1.62139 6.24557 -6.27613 
448 1 -0.657657 6.7844 -6.19014 
1652 1 -0.558145 5.89631 -6.51497 
3259 2 -0.162303 6.95622 7.10895 
1567 1 0.20038 6.52039 -6.03977 
1685 1 0.919603 6.34355 7.14661 
725 1 1.69612 6.66013 -7.04726 
486 1 2.37651 5.91217 -6.66217 
215 1 2.9524 6.25607 7.14019 
3569 2 3.71173 6.40374 -6.49111 
3587 2 3.63734 -7.2073 -6.18259 
1724 1 4.84835 6.81796 -6.70574 
2787 2 5.88578 -7.07473 -6.96573 
1295 1 5.28262 6.3376 -6.13821 
112 1 -6.73215 6.05568 -6.75288 
3539 2 6.05931 6.57529 -6.99294 
2136 1 6.70228 -7.1802 -6.20906 
1051 1 6.17745 5.88991 -6.04672 
1530 1 6.93084 6.37632 -6.24807 
2574 1 -6.08508 -6.09429 -5.78862 
3487 2 -6.97468 -6.42111 -5.0528 
1555 1 -5.76644 -6.34486 -4.89852 
3520 2 -4.86113 -6.5469 -5.54324 
1148 1 -5.10023 -6.95646 -4.61017 
1396 1 -4.29848 7.05614 -4.54737 
977 1 -3.8717 -6.7342 -6.16207 
964 1 -3.86219 -7.0306 -5.22365 
1725 1 -4.17634 -6.16162 -4.83287 
2627 1 -1.6467 -6.23885 -5.63802 
1836 1 -2.21867 -6.77339 -5.25262 
1691 1 -3.30514 -6.47729 -5.31615 
1227 1 -3.02054 7.01681 -5.43172 
3594 2 -0.95316 -6.45048 -4.779 
2491 1 -0.556059 -6.53233 -5.90731 
1881 1 0.202579 -6.48805 -5.05073 
3128 2 1.34892 -6.39977 -5.33087 
2978 2 1.46083 -7.16309 -5.69682 
1634 1 1.96912 -6.02914 -6.36743 
1416 1 2.03301 -5.75681 -4.34014 
2256 1 2.33141 -6.07995 -5.60249 
862 1 2.30713 -6.76883 -4.71874 
1992 1 2.71644 -6.11225 -4.92441 
893 1 3.94125 -5.87325 -5.15669 
281 1 4.52163 -6.34321 -5.53931 
1175 1 3.39318 -6.72291 -5.0283 
329 1 5.52043 -6.50984 -5.6959 
3290 2 5.16442 -6.17316 -4.47094 
2926 2 5.44098 -6.84983 -4.72812 
538 1 6.55639 -7.01595 -4.87333 
2288 1 6.62343 -6.67297 -4.08687 
317 1 6.12674 -5.79595 -5.23094 
639 1 7.10222 -4.95274 -5.95752 
2045 1 -6.0004 -5.37502 -5.13516 
3416 2 -5.0735 -5.793 -5.76432 
1718 1 -5.51314 -5.51814 -4.46592 
3325 2 -5.13463 -5.00765 -5.61839 
2727 1 -4.3473 -5.40415 -5.02227 
1784 1 -3.91425 -5.09799 -5.73884 
1344 1 -3.45995 -5.58644 -5.13463 
909 1 -2.04796 -5.49654 -5.38224 
2426 1 -2.90354 -4.80647 -5.01979 
2139 1 -2.05823 -4.72205 -5.20089 
15 1 -0.862314 -4.8908 -5.51936 
3322 2 -0.726824 -5.47339 -4.53537 
1210 1 0.296727 -5.93841 -5.97673 
842 1 0.105061 -4.74923 -5.79049 
1643 1 -0.0502263 -5.53372 -5.34336 
2826 2 1.17868 -5.56259 -5.151 
3068 2 0.975757 -4.83599 -5.31015 
2113 1 2.23883 -5.23853 -4.90911 
2933 2 3.12429 -4.74444 -5.67414 
2145 1 2.88456 -4.65219 -4.60076 
1075 1 1.68363 -4.75438 -4.21541 
2462 1 4.3916 -5.13243 -5.21507 
224 1 3.21058 -5.53478 -4.78165 
2656 1 4.9884 -3.98062 -5.20975 
85 1 5.23194 -5.65479 -5.64777 
2828 2 -7.13784 -5.64421 -4.92635 
3010 2 7.01936 -4.81705 -4.89319 
1373 1 6.262 -5.03814 -5.67341 
1526 1 5.92228 -5.18676 -4.78831 
346 1 -6.69973 -3.33389 -5.115 
472 1 -6.46231 -4.2819 -5.11245 
1872 1 -6.03301 -4.65535 -4.54403 
2912 2 -5.28312 -4.2277 -5.3425 
2737 2 -5.46972 -3.42683 -5.44296 
1800 1 -4.04017 -4.22124 -5.48833 
1071 1 -3.64359 -4.65882 -4.84712 
1465 1 -4.14688 -3.38653 -4.75656 
2248 1 -3.39665 -3.78164 -4.83345 
128 1 -2.55109 -3.98753 -5.08717 
2524 1 -2.73223 -4.29407 -4.12636 
995 1 -1.30742 -4.31573 -5.41779 
484 1 -1.79736 -3.43981 -5.45697 
2102 1 -0.320296 -4.6784 -4.86579 
139 1 -0.357524 -3.92343 -5.64583 
1722 1 -0.72224 -3.38728 -5.01421 
2768 2 0.740913 -4.07676 -5.04587 
3227 2 0.41769 -3.36989 -4.83068 
891 1 1.86172 -4.25144 -5.69202 
480 1 2.66013 -3.88913 -4.25623 
3249 2 2.90602 -4.01989 -5.57333 
3014 2 2.77446 -3.3246 -5.37961 
1237 1 2.03213 -4.36105 -4.85842 
250 1 1.61715 -3.25302 -5.61803 
665 1 3.83324 -4.59664 -4.73429 
1385 1 4.1665 -3.84289 -5.28197 
847 1 5.34516 -4.81325 -5.31379 
1034 1 5.33265 -3.16366 -5.20736 
190 1 4.50983 -3.01084 -5.0431 
1320 1 5.85861 -3.87086 -5.46045 
659 1 -7.12838 -4.05658 -5.86961 
3080 2 6.80296 -4.07962 -4.80492 
304 1 -6.52966 -3.34077 -5.90492 
1999 1 -6.82842 -2.40932 -4.76312 
670 1 -6.78971 -2.49795 -5.72227 
2890 2 -5.76004 -2.74352 -5.27785 
2974 2 -5.84272 -2.02839 -4.97201 
1446 1 -4.28446 -2.38542 -5.01074 
2310 1 -3.46817 -2.66152 -4.86321 
477 1 -4.51203 -3.10747 -5.46002 
56 1 -4.8302 -2.01378 -5.62971 
3041 2 -3.37885 -3.10844 -5.96316 
1979 1 -2.62938 -3.17026 -5.08234 
37 1 -2.26584 -2.96525 -5.92831 
871 1 -2.70045 -2.28653 -5.09511 
1380 1 -1.68648 -2.41125 -5.30554 
1953 1 -0.843585 -2.69657 -5.47336 
3430 2 0.30595 -2.72847 -4.80024 
84 1 1.64503 -2.19756 -6.14003 
1946 1 1.32153 -2.54174 -5.44445 
2830 2 2.51522 -2.62014 -5.45345 
1472 1 3.09385 -2.84724 -4.23245 
1859 1 3.5664 -2.14575 -5.74762 
1313 1 3.68898 -2.64092 -5.00851 
72 1 4.56031 -2.08297 -4.78726 
110 1 3.15655 -1.93504 -4.54245 
1496 1 5.53005 -2.2626 -5.4577 
452 1 6.03602 -3.05499 -5.74565 
3173 2 6.65191 -3.43523 -4.5803 
656 1 6.98207 -2.2977 -5.40736 
1207 1 6.89585 -3.26713 -5.69833 
2858 2 6.43074 -2.71162 -4.50793 
1301 1 7.18444 -1.47309 -4.45466 
2993 2 -6.26347 -1.40729 -4.90742 
90 1 -6.04601 -0.595104 -5.809 
1145 1 -6.60622 -1.08319 -6.03341 
3267 2 -6.20888 -0.615311 -4.75241 
1514 1 -4.95953 -1.50788 -4.99706 
1835 1 -4.10327 -0.797535 -4.14814 
2869 2 -3.57147 -2.37555 -5.80319 
2844 2 -3.81538 -1.48444 -5.6723 
1790 1 -2.52283 -1.91243 -5.72347 
400 1 -2.12579 -1.41291 -5.14087 
2718 1 -2.81205 -0.993481 -5.64359 
1864 1 -3.266 -1.76461 -4.62742 
2105 1 -0.611601 -1.86782 -5.64509 
2395 1 -1.31154 -1.62027 -5.02085 
2605 1 -1.45595 -0.733443 -4.97528 
3354 2 0.031464 -1.96932 -4.81474 
1890 1 0.194957 -1.16803 -5.75632 
202 1 1.41825 -1.7982 -4.87565 
2434 1 0.921008 -1.20021 -5.00936 
3356 2 2.39781 -1.90432 -5.30469 
3557 2 2.19673 -1.1073 -5.19938 
2336 1 3.82759 -1.42746 -4.89527 
859 1 3.30757 -1.16238 -5.84138 
1830 1 6.17092 -1.03783 -5.41461 
148 1 4.99504 -0.203172 -4.76791 
2352 1 5.48384 -1.40111 -5.17516 
720 1 -7.11647 -1.52179 -5.54334 
2130 1 5.38997 -0.480973 -5.46886 
34 1 6.8623 -0.80764 -4.88086 
1841 1 -6.51445 0.137542 -5.87758 
1402 1 -6.99121 -0.496854 -5.46642 
1200 1 -7.15002 0.50612 -5.36365 
499 1 -4.59728 0.460898 -6.259 
493 1 -5.37957 0.252625 -5.84683 
385 1 -5.11275 -0.685577 -4.95836 
1551 1 -5.00612 0.133949 -4.78737 
3543 2 -4.10937 -0.722291 -5.28283 
3256 2 -4.09301 0.129714 -5.2543 
1928 1 -3.01489 -0.939392 -4.78916 
827 1 -2.76689 0.169875 -5.00819 
2077 1 -2.18685 -0.470571 -5.0969 
1268 1 -1.46598 -0.313958 -4.20622 
2796 2 -1.78826 0.347759 -5.86374 
1074 1 -0.937821 -0.0628313 -5.2795 
1531 1 0.0255582 -0.342041 -5.60244 
75 1 -0.14568 0.561893 -5.39635 
1777 1 0.862196 -0.648177 -5.5592 
1713 1 1.13394 0.321754 -5.69672 
1432 1 0.56083 -0.0169631 -5.0465 
3449 2 1.86457 -0.287484 -4.8966 
1185 1 2.83595 0.624103 -5.05587 
886 1 2.90841 -0.250337 -5.33626 
3317 2 4.1629 -0.198468 -5.69337 
2848 2 3.87492 0.454702 -5.30078 
2068 1 5.14667 0.210064 -5.78451 
140 1 5.55471 0.457759 -5.1136 
1568 1 6.32777 0.169782 -5.05572 
443 1 -6.10664 1.08969 -5.67128 
1151 1 -6.56529 2.03091 -5.39408 
408 1 -5.18447 0.837995 -5.07812 
3144 2 -4.08426 0.86456 -5.1642 
2861 2 -4.32193 1.52593 -4.89441 
2939 2 -2.11874 1.02972 -5.52745 
2846 2 -2.16972 1.84877 -5.34355 
1483 1 -3.16194 1.34464 -5.04288 
857 1 -3.26353 2.03337 -4.51367 
1880 1 -1.21988 0.473518 -4.77061 
1775 1 -1.49681 1.18265 -4.44914 
2489 1 -0.860599 1.22301 -5.13348 
867 1 0.0327131 1.49457 -5.01941 
171 1 0.906687 1.17167 -5.56811 
3383 2 1.71927 0.530418 -4.82375 
3443 2 1.71676 1.35563 -4.61696 
970 1 1.75756 1.76573 -5.77619 
1997 1 2.59437 1.2453 -5.80017 
175 1 1.91661 0.82752 -6.0196 
2575 1 2.75815 1.55221 -4.99783 
3364 2 4.11353 1.16729 -5.31916 
3388 2 3.89219 1.89037 -5.17609 
234 1 5.16062 1.22989 -5.3854 
2445 1 5.27855 1.43879 -6.48096 
941 1 6.01808 1.08133 -4.70281 
2327 1 5.47908 1.98739 -4.70469 
13 1 7.14641 1.4838 -4.9441 
1335 1 -5.66845 1.90705 -5.47941 
92 1 -6.65431 2.95665 -5.15361 
1224 1 -5.01553 2.11634 -6.01547 
2200 1 -5.57972 2.79894 -5.35729 
3062 2 -4.54974 2.32787 -4.81896 
2061 1 -6.06341 2.60376 -4.67564 
2490 1 -3.32929 2.10794 -5.43717 
1833 1 -4.14642 2.34472 -5.83668 
1986 1 -3.49165 2.84611 -4.76014 
3117 2 -2.24281 2.63581 -5.21066 
2208 1 -1.18897 2.04722 -5.74223 
2647 1 -1.23401 3.01983 -5.04205 
1521 1 -0.572211 3.04158 -4.51667 
46 1 -0.283087 2.16345 -4.69175 
2708 1 0.585532 2.38982 -4.54741 
1375 1 0.961007 2.11674 -5.32982 
2271 1 1.66101 2.69959 -5.31589 
1614 1 2.54458 2.50286 -4.70443 
47 1 2.43499 2.25958 -5.48881 
324 1 2.98363 2.94414 -5.7774 
3433 2 3.68132 2.58541 -5.02951 
2894 2 3.56691 3.42072 -4.95575 
2092 1 4.64304 3.11675 -5.47402 
2584 1 4.961 2.08321 -5.49175 
1466 1 4.61355 2.49957 -4.36569 
2690 1 7.14402 2.35705 -5.03041 
3414 2 5.88074 2.77388 -5.56614 
1169 1 6.50513 2.81869 -4.77641 
412 1 -5.5599 3.83396 -3.66515 
896 1 -6.00604 3.38996 -4.35107 
120 1 -6.5346 3.95302 -4.8734 
668 1 -4.79353 2.94667 -5.82359 
928 1 -5.66836 3.61196 -5.23868 
1669 1 -4.49983 3.93509 -5.69441 
2495 1 -3.85231 3.23583 -5.48566 
2687 1 -3.92073 4.47287 -5.35558 
1255 1 -3.72914 3.72781 -4.52764 
2945 2 -2.63743 3.50615 -5.06635 
2977 2 -2.7705 4.31404 -5.07185 
353 1 -1.68417 3.78631 -5.46243 
197 1 -0.837445 4.08617 -4.59767 
894 1 0.322907 3.12336 -5.00724 
2813 2 -0.404571 3.24953 -5.74519 
2176 1 0.213136 3.97579 -5.13016 
3378 2 -0.729099 3.99986 -5.68778 
586 1 0.810149 4.47585 -5.31251 
1639 1 1.18423 3.50779 -5.31005 
23 1 1.56228 4.87821 -4.89742 
482 1 2.06941 4.22459 -5.25533 
614 1 2.85737 4.2051 -6.05993 
3013 2 3.41978 4.23525 -4.84512 
1644 1 2.32131 3.38966 -5.23544 
2172 1 4.49287 4.29647 -4.69144 
2414 1 4.19912 3.75742 -5.8068 
2814 2 3.09471 4.86089 -4.64142 
3298 2 5.56789 3.49255 -5.59096 
2917 2 5.41296 4.25842 -5.38156 
462 1 6.73424 4.31728 -5.13701 
2541 1 6.96391 3.43866 -5.3449 
283 1 6.28828 3.84741 -4.83613 
3045 2 -6.61746 4.93768 -5.96064 
3147 2 -6.64031 5.7171 -5.71018 
2308 1 -5.7161 5.48521 -5.18476 
822 1 -5.95889 4.61764 -5.15332 
1543 1 -5.00844 4.63996 -5.63905 
1030 1 -3.92008 5.36405 -5.20295 
2466 1 -3.82923 4.60596 -4.26419 
2865 2 -2.87571 5.0254 -4.80742 
3458 2 -2.89909 5.6023 -4.44671 
2626 1 -1.74348 4.69854 -5.53509 
597 1 -1.66695 4.52909 -4.64552 
1702 1 0.407386 5.67049 -5.74902 
3392 2 -0.567623 4.68031 -5.76231 
3207 2 -0.546463 5.42775 -5.54161 
2080 1 0.00149063 4.99903 -4.74747 
1709 1 0.682498 6.2413 -5.09588 
2038 1 0.69955 5.27951 -5.08004 
1141 1 1.43908 5.94597 -4.95155 
825 1 2.59658 4.89667 -5.68078 
103 1 2.21155 5.44229 -5.09571 
1422 1 2.6712 5.91818 -5.90142 
1066 1 3.41087 5.38911 -5.57521 
908 1 3.63179 4.5691 -5.93391 
2028 1 4.34397 4.86191 -5.30673 
2025 1 4.45425 5.604 -4.79654 
2927 2 5.52561 5.08365 -5.19324 
2209 1 6.76107 5.29013 -4.73146 
1667 1 6.63699 5.31253 -5.60853 
2747 2 -6.89724 7.13426 -5.34682 
3330 2 -6.86229 6.36627 -5.35597 
2376 1 -4.81858 5.46593 -5.18963 
1004 1 -5.75535 6.52417 -5.94756 
2573 1 -5.80655 -7.0544 -5.45749 
297 1 -5.68432 6.42905 -5.06241 
803 1 -4.91413 6.45589 -4.99838 
2275 1 -4.24089 5.79255 -4.60007 
715 1 -3.8766 6.48659 -5.27352 
1744 1 -2.46577 5.66949 -5.62949 
1394 1 -2.52931 6.42638 -5.66073 
658 1 -1.77731 6.83016 -5.68218 
3455 2 -0.777207 7.11298 -5.11015 
3018 2 -0.861082 6.21608 -5.27277 
897 1 -1.96991 6.27722 -4.86793 
1435 1 -0.019331 6.9698 -4.34373 
1382 1 0.188516 7.08052 -5.44771 
2899 2 1.52114 6.47575 -5.95289 
372 1 1.10441 6.94194 -4.66271 
686 1 2.62378 6.74332 -6.37847 
1689 1 2.67238 7.20519 -5.54804 
1249 1 2.29568 6.5627 -5.27127 
295 1 3.47972 6.42004 -5.35361 
492 1 4.10772 -7.14089 -4.87192 
2051 1 5.80732 7.04435 -5.95578 
1513 1 4.23912 6.06377 -5.55204 
3257 2 5.4874 5.87461 -5.07672 
2971 2 5.4552 6.73649 -4.70583 
244 1 6.41246 6.70152 -5.43496 
1399 1 -6.0075 -6.91029 -4.38573 
1153 1 -6.56356 -6.39546 -3.30205 
1490 1 -4.86829 -6.07264 -4.47206 
3469 2 -5.41353 -6.70901 -3.4762 
1772 1 -4.29075 -6.55762 -4.09999 
2835 2 -3.24651 -6.68425 -4.02687 
138 1 -4.16223 7.16151 -3.55994 
2332 1 -4.28944 -6.24055 -3.37811 
1506 1 -3.69312 -7.02339 -2.97293 
2033 1 -2.61511 -6.79497 -2.93902 
356 1 -2.66702 -5.97076 -4.98119 
350 1 -2.32781 -6.14247 -3.44602 
180 1 -1.32494 -5.88731 -3.46561 
2453 1 -2.06721 -6.36208 -4.23578 
6 1 -1.29453 -6.64815 -3.63959 
1127 1 -0.505753 -5.9782 -3.44785 
3236 2 0.671655 -6.16941 -3.23682 
635 1 0.40365 -5.83329 -4.34984 
1945 1 -0.151795 -6.56534 -3.99453 
1799 1 1.04392 -6.73579 -4.35092 
2298 1 1.27226 -5.62183 -4.06076 
2067 1 1.80395 -6.63855 -3.78723 
632 1 1.68589 -5.70901 -3.30231 
3303 2 3.06945 -6.59809 -4.00329 
2918 2 2.8709 -5.89525 -3.72755 
1358 1 3.97057 -6.23803 -4.45449 
2714 1 3.88978 -6.85781 -3.10253 
144 1 5.0812 -6.78833 -3.5423 
2695 1 5.84794 -5.70036 -3.66827 
2571 1 5.96181 -6.57703 -3.58813 
2029 1 6.39657 -5.94032 -4.28539 
610 1 -6.72941 -6.67333 -4.08471 
2269 1 -6.63936 -4.68946 -3.92101 
1893 1 -6.44362 -5.78924 -4.09007 
582 1 -4.6812 -5.21817 -4.27123 
3228 2 -5.56852 -6.06637 -3.55603 
2318 1 -4.53237 -5.25696 -3.44781 
3413 2 -3.3231 -5.87185 -3.95854 
3562 2 -3.68665 -5.2218 -3.9602 
104 1 -2.59946 -5.25237 -4.33952 
401 1 -3.07005 -4.92939 -2.6107 
322 1 -2.01539 -5.41369 -3.58184 
3480 2 -1.43565 -5.48757 -4.4818 
954 1 -0.625461 -4.24828 -3.7135 
1863 1 0.340837 -5.03225 -4.26046 
1431 1 -0.356945 -5.10418 -3.59695 
1069 1 1.343 -3.88231 -4.2243 
1998 1 0.959434 -4.73835 -3.6302 
3379 2 2.64061 -4.97532 -3.60778 
1653 1 3.61274 -4.53454 -3.81527 
2075 1 3.83917 -5.40073 -4.05357 
2825 2 4.90959 -5.47041 -4.24037 
1878 1 5.7062 -4.84093 -3.47461 
1312 1 7.1859 -5.7027 -3.7874 
2162 1 6.98786 -4.78501 -3.57684 
1000 1 6.33634 -5.07201 -3.97354 
1481 1 -5.74575 -3.7908 -4.3285 
1673 1 -6.70605 -3.80276 -4.2238 
1885 1 -5.33174 -4.77501 -4.38663 
2106 1 -5.79575 -2.90487 -4.10098 
2388 1 -4.81086 -3.56992 -4.41458 
2350 1 -4.59304 -4.35051 -3.89118 
1609 1 -4.52612 -4.33255 -4.78112 
3536 2 -3.64045 -4.30875 -3.65086 
3376 2 -3.92777 -3.50079 -3.60909 
1143 1 -2.66902 -4.98969 -3.41895 
1470 1 -3.07989 -3.27014 -4.18088 
3285 2 -1.48469 -4.66413 -4.30836 
2916 2 -1.83132 -3.9144 -4.26514 
1251 1 -1.37754 -3.82447 -3.20756 
851 1 -0.730757 -4.0405 -4.5255 
2044 1 0.129621 -3.25481 -3.64438 
1028 1 0.250333 -4.03117 -4.01718 
1611 1 1.81815 -3.53628 -4.80665 
858 1 1.37218 -2.84187 -4.64606 
1843 1 1.01235 -3.15072 -3.95569 
2306 1 2.27798 -3.02074 -4.3607 
3230 2 2.19271 -4.21855 -3.42611 
3015 2 1.94413 -3.51222 -3.2695 
2150 1 3.58366 -3.64371 -4.56742 
2712 1 3.28341 -3.65306 -3.57212 
3340 2 4.85808 -4.64621 -4.11346 
3244 2 4.61563 -3.98579 -4.0159 
2239 1 5.55569 -3.45867 -4.31045 
463 1 5.34602 -3.72093 -3.27261 
1807 1 4.9341 -2.80719 -3.02186 
1994 1 5.99932 -4.0296 -3.76433 
1493 1 5.79748 -4.3574 -4.68317 
2721 1 6.86158 -3.94328 -3.66973 
1013 1 7.10818 -3.12855 -3.45605 
587 1 -6.70972 -2.99324 -4.30555 
874 1 -6.05926 -2.1055 -3.93131 
831 1 -7.08279 -2.16469 -3.89591 
2309 1 -4.94011 -2.53639 -4.50175 
1144 1 -5.28103 -2.67376 -3.44515 
3083 2 -4.18649 -2.75979 -3.68585 
2496 1 -2.709 -2.97017 -3.44191 
647 1 -3.13686 -2.24749 -3.90321 
1064 1 -0.728524 -2.52663 -4.40528 
3198 2 -1.73873 -3.18915 -4.31254 
2766 2 -1.9167 -2.43497 -4.21193 
1266 1 -0.725976 -3.2443 -3.81525 
2020 1 0.0129418 -2.44777 -3.73135 
922 1 1.98979 -2.27245 -4.3957 
984 1 1.09571 -2.3112 -4.09377 
879 1 3.04431 -1.78198 -3.26914 
535 1 2.97713 -2.80292 -3.41964 
169 1 2.68333 -2.11649 -3.9545 
2857 2 4.38815 -3.26471 -3.9455 
3353 2 4.04931 -2.60518 -3.79347 
2211 1 5.24902 -2.54173 -4.65548 
2365 1 5.56008 -2.70379 -3.57808 
844 1 6.69212 -2.31456 -3.33937 
335 1 6.30553 -3.28535 -3.39858 
1325 1 -6.52838 -1.22753 -3.75379 
1707 1 -5.73219 -1.06134 -3.70101 
572 1 -5.18507 -1.72178 -4.05698 
960 1 -5.13064 -0.859155 -4.11425 
808 1 -4.18279 -1.672 -4.56063 
2674 1 -3.37846 -1.02192 -3.97639 
3229 2 -4.31907 -2.03533 -3.64236 
2638 1 -3.09134 -1.59102 -3.28638 
2748 2 -2.14085 -1.6007 -4.09013 
2789 2 -2.37763 -0.774081 -3.86306 
2542 1 -0.931197 -1.84564 -3.94762 
1484 1 -0.754235 -0.802853 -3.48575 
1971 1 -1.14535 -1.08086 -4.26992 
2057 1 -1.32508 -1.54143 -3.13455 
3585 2 -0.0236877 -1.25913 -4.51512 
2540 1 -0.260166 -1.50113 -3.44451 
2237 1 0.457512 -0.480864 -3.49993 
1969 1 1.03969 -1.46932 -4.04818 
236 1 2.69585 -1.1522 -4.18657 
247 1 1.87288 -1.41826 -4.0933 
2722 1 2.65025 -0.172091 -4.12022 
1337 1 3.27868 -0.754358 -4.78534 
3134 2 4.07821 -1.82612 -3.92227 
2914 2 3.76127 -1.077 -3.6485 
1703 1 4.91341 -0.937369 -3.71745 
2856 2 5.98376 -1.30068 -4.19315 
1648 1 4.83896 -1.1122 -4.54171 
153 1 5.06554 -1.95525 -3.9237 
2054 1 7.12534 -0.554698 -3.94104 
3116 2 6.15564 -1.99152 -4.37383 
423 1 6.86703 -1.31273 -3.54007 
1882 1 7.03234 0.337981 -3.73441 
1575 1 -6.43926 -0.447818 -3.58894 
3186 2 -6.04784 0.150856 -4.72729 
319 1 -6.51997 0.440446 -3.49352 
1428 1 -5.54531 -0.184964 -3.79317 
1343 1 -4.66871 -0.172935 -4.06616 
2601 1 -3.20487 0.734282 -4.36027 
111 1 -3.32801 -0.0691608 -4.49185 
2302 1 -3.60866 -0.386585 -3.26663 
1316 1 -3.89915 0.341893 -3.94917 
3490 2 -2.55977 -0.0459727 -3.55051 
3588 2 -2.65941 0.781923 -3.44823 
2241 1 -1.45817 0.315817 -3.75107 
969 1 -2.17567 0.551071 -4.46305 
3500 2 -0.219109 -0.475255 -4.34953 
3555 2 -0.350417 0.299544 -4.07787 
2 1 0.320263 0.353891 -3.15471 
692 1 0.94214 -0.676724 -4.35448 
1296 1 0.8035 0.198582 -3.9938 
2013 1 1.86703 -0.49873 -3.82022 
1700 1 1.4759 0.255578 -3.70396 
506 1 2.30724 0.408528 -3.58395 
76 1 3.27557 0.224547 -4.32971 
2084 1 4.09159 -0.297767 -4.45602 
3483 2 3.54294 -0.239258 -3.272 
455 1 4.9221 0.714186 -4.71652 
1548 1 4.84117 -0.00348855 -3.9415 
2297 1 -7.17051 -0.136793 -4.64665 
2902 2 5.98882 -0.4766 -4.31007 
2819 2 5.85209 0.193502 -3.95773 
3263 2 -6.33449 0.939644 -4.52901 
3260 2 -6.49873 1.70367 -4.21425 
817 1 -6.56422 1.96414 -2.71064 
1622 1 -7.01593 1.37893 -3.251 
2423 1 -4.777 0.817667 -4.17756 
1627 1 -5.46902 0.71285 -3.85073 
1607 1 -5.37816 1.64236 -4.72353 
2278 1 -5.47713 1.86166 -3.77957 
1793 1 -4.51464 1.58192 -3.70996 
882 1 -3.65986 1.33198 -3.95239 
1910 1 -2.51292 1.39674 -4.48919 
14 1 -1.55512 1.17689 -3.55968 
3196 2 -0.591762 1.78788 -3.6084 
1002 1 -1.68583 1.94879 -4.22626 
549 1 0.749713 1.13841 -3.63855 
2406 1 0.587476 0.778266 -4.73121 
2950 2 -0.467743 1.05275 -3.96343 
2328 1 0.538665 1.54543 -4.3141 
258 1 0.184771 1.50522 -2.93354 
130 1 1.51062 1.0597 -3.55668 
583 1 2.70879 0.998078 -4.24135 
254 1 3.02891 1.81 -3.9801 
620 1 2.21474 1.26138 -3.35167 
296 1 4.3772 0.638701 -4.04335 
3305 2 3.40208 0.467061 -3.2235 
1364 1 3.63619 1.24905 -4.27844 
556 1 4.03212 1.91473 -3.82953 
2637 1 4.72672 1.58405 -4.48482 
840 1 4.41617 1.07982 -3.26891 
3209 2 5.48556 0.977651 -3.71564 
3369 2 5.32538 1.76642 -3.39047 
698 1 6.53785 1.41914 -3.65316 
823 1 6.83808 0.892004 -4.31399 
1913 1 -5.95994 2.42567 -3.15352 
3033 2 -6.90871 2.37799 -3.9763 
2751 2 -7.0633 3.1517 -4.08814 
35 1 -5.6112 2.77203 -3.82887 
978 1 -4.94137 3.34817 -3.26992 
2529 1 -3.89083 2.20058 -3.87473 
1783 1 -3.86283 3.04064 -3.8763 
2311 1 -4.70915 2.45117 -3.59821 
2436 1 -2.80734 3.18474 -4.05615 
154 1 -2.49172 2.41166 -4.19645 
2563 1 -2.09597 3.32361 -3.40399 
1132 1 -1.69592 2.87855 -4.25094 
2860 2 -0.672199 2.60287 -3.55968 
1661 1 -1.17193 2.1193 -4.84396 
2030 1 -1.90175 2.4156 -3.39683 
2442 1 0.669816 2.17343 -3.52284 
3241 2 1.65091 2.15503 -4.32367 
3063 2 1.53836 2.94061 -4.24565 
1012 1 1.51741 1.93172 -3.19808 
414 1 2.40214 2.11901 -3.37954 
946 1 2.65951 3.06459 -4.12318 
613 1 3.37516 2.68742 -3.83823 
2707 1 4.19638 3.03418 -3.67088 