ITEM: TIMESTEP
18600
ITEM: NUMBER OF ATOMS
3594
ITEM: BOX BOUNDS pp pp pp
-7.1987829168423767e+00 7.1987829168423767e+00
-7.1987829168423767e+00 7.1987829168423767e+00
-7.1987829168423767e+00 7.1987829168423767e+00
ITEM: ATOMS id type x y z 
1263 1 -7.07069 6.60376 -6.88932 
2045 1 -6.84882 -6.94014 -6.63567 
2051 1 -5.73084 7.01364 -5.25404 
1610 1 -5.28561 -6.66603 7.07762 
1415 1 -4.96797 6.90081 7.1814 
3477 2 -5.03522 -6.95565 -6.03499 
262 1 -3.87934 -6.64297 -6.39067 
1654 1 -3.56831 7.08246 -6.08182 
601 1 -4.6232 -6.23926 -6.98658 
2727 1 -4.15995 -5.61845 -6.33254 
1262 1 -4.18456 -7.14432 -7.04813 
2944 2 -2.66907 -7.09224 -6.65215 
3574 2 -2.68574 -6.37262 -6.54933 
1210 1 -1.74789 -6.05805 -5.99726 
448 1 -1.65298 -6.47961 -7.02233 
1643 1 -0.784245 -6.45279 -6.07564 
3368 2 -0.554041 -6.15207 -7.10766 
1333 1 -0.039957 -6.77229 -5.96409 
2415 1 1.64895 -7.18451 -6.95838 
1073 1 2.18239 -6.5766 -6.72627 
1175 1 2.5325 7.07186 -5.69316 
1538 1 2.82774 -7.03322 7.18737 
3442 2 3.48105 -6.67215 -6.46696 
645 1 4.39357 -5.79911 -6.63204 
3587 2 3.50544 7.02798 -6.55005 
3208 2 5.72426 -6.44848 -6.81667 
329 1 4.26576 -7.03861 -5.74629 
317 1 6.63339 7.19116 -6.29943 
1373 1 6.99567 -6.13649 -6.63316 
2521 1 6.79304 -6.72393 7.19354 
2009 1 6.46511 -5.74458 7.17916 
1282 1 -6.40312 -4.52605 -6.40753 
318 1 -5.99594 -6.16498 -6.81768 
639 1 -6.06444 -5.28424 -6.6589 
2122 1 -4.9647 -5.55748 -6.98451 
1918 1 -5.96579 -4.52073 7.19502 
1280 1 -4.41959 -4.89098 -6.81806 
2706 1 -3.89608 -4.53426 7.16541 
2981 2 -2.98827 -5.48745 -6.52654 
995 1 -1.97005 -4.49008 -7.19249 
2543 1 -1.20555 -5.19977 -5.97103 
3019 2 -0.819517 -5.40584 -7.01837 
3484 2 -0.998436 -4.69826 -7.00344 
2627 1 -1.72064 -5.63854 -6.86712 
527 1 0.199061 -6.07841 -6.44798 
579 1 0.0541618 -5.08204 -6.4759 
1133 1 0.160873 -5.25866 6.71317 
1088 1 1.76804 -5.59682 -6.60335 
2368 1 0.754219 -5.45887 -6.93446 
2623 1 2.47546 -5.81943 -7.0405 
2957 2 3.19198 -5.85108 -6.32861 
2933 2 3.10726 -5.05212 -6.01464 
2379 1 2.2305 -4.83661 -6.87179 
1215 1 4.15253 -4.8545 -6.2218 
638 1 4.42985 -5.35007 6.97047 
2812 2 5.63476 -5.56264 -6.7112 
3212 2 5.27958 -4.94115 -6.63571 
1526 1 6.46696 -6.40572 -6.12907 
1362 1 6.42086 -4.82692 -7.06188 
304 1 6.48237 -5.46223 -6.11102 
1459 1 -6.62698 -3.6602 -6.19182 
3029 2 -7.09842 -4.18728 -7.12999 
1078 1 -5.9465 -3.75176 -6.76099 
1184 1 -5.1803 -4.45113 -6.83913 
1087 1 -4.50851 -2.88133 -6.66434 
923 1 -4.83905 -3.59958 -6.3332 
3041 2 -3.46017 -3.86658 -6.01785 
37 1 -3.54078 -3.11691 -6.9179 
2699 1 -4.22841 -3.89449 -6.76923 
3061 2 -3.18849 -4.5843 -6.17856 
128 1 -2.5927 -3.34478 -6.96611 
821 1 -2.28676 -3.92981 -6.37676 
2549 1 -3.11404 -3.92224 7.08808 
2808 2 -1.07348 -3.87987 -6.79067 
722 1 -0.312344 -4.34855 -6.07718 
842 1 0.578695 -4.26925 -6.47604 
40 1 1.68366 -4.62759 -5.80113 
774 1 1.25633 -4.99429 -6.4481 
1168 1 1.66631 -3.91385 -6.32003 
1734 1 2.52269 -4.04496 -6.761 
2407 1 3.9199 -4.6567 -7.03183 
1976 1 3.22162 -3.64012 -6.72521 
1695 1 3.82724 -4.03046 -6.21739 
3266 2 5.09095 -4.25375 -6.53581 
2767 2 4.79674 -3.52846 -6.37032 
1372 1 5.66638 -3.96831 -5.61886 
2015 1 6.19214 -3.99459 -6.79941 
2975 2 7.0373 -3.36306 -6.94392 
452 1 6.70556 -4.41744 -6.19136 
1354 1 -7.12298 -2.62447 -5.78279 
670 1 -6.37281 -2.76097 -6.29823 
2054 1 -7.14483 -1.60646 -5.68168 
1581 1 -5.54121 -3.02781 -6.4209 
1392 1 -5.50333 -2.23125 -6.10767 
1445 1 -4.63687 -1.93295 -6.43729 
1370 1 -4.06073 -2.149 -7.09419 
395 1 -3.37816 -1.57903 -6.88505 
2289 1 -2.44403 -3.00942 -6.20424 
594 1 -2.87215 -2.38803 -6.73885 
3332 2 -1.35852 -3.34331 -6.40979 
3234 2 -1.59265 -2.38145 -6.41352 
2589 1 -0.0342969 -3.81322 -6.71218 
502 1 0.909254 -3.3751 -6.21916 
1767 1 -0.32501 -2.47606 -6.53263 
250 1 0.11545 -3.07967 -6.21634 
2599 1 1.65509 -2.80028 -6.52553 
3347 2 0.763848 -2.62895 -7.11702 
2178 1 1.43804 -1.82085 -6.15316 
985 1 3.0735 -2.85247 -6.51802 
1834 1 2.22508 -2.15621 -6.72349 
1663 1 2.1662 -3.29848 -6.77948 
388 1 3.60766 -3.24518 -5.85672 
1859 1 3.52401 -2.35567 -5.96617 
2617 1 3.20591 -2.02462 -6.64855 
3550 2 4.62491 -2.84134 -6.10802 
377 1 5.2981 -1.27245 -6.5464 
2183 1 4.87412 -2.1034 -7.16248 
2360 1 5.62079 -2.77536 -5.68612 
3126 2 6.74649 -2.71894 -6.72892 
1597 1 5.87009 -3.2114 -6.68984 
194 1 -6.76006 -0.80252 -5.98395 
351 1 -6.50861 -1.06041 -7.03354 
2137 1 -7.02236 -1.78795 6.76658 
83 1 -4.76077 -0.680383 -6.32266 
1340 1 -6.45986 -1.58969 -6.25251 
2641 1 -5.70687 -1.25412 -6.15653 
3360 2 -5.3646 -1.10514 -7.1807 
1474 1 -3.12142 -0.682931 -6.5556 
1457 1 -2.52206 -1.29123 -6.77156 
433 1 -2.2072 -1.87815 6.96764 
900 1 -2.61691 -1.08291 -5.82368 
2718 1 -2.64703 -1.99044 -5.91939 
3105 2 -1.5392 -1.65567 -6.38916 
3200 2 -1.54037 -0.820566 -6.20215 
2108 1 -0.494117 -1.68379 -6.57645 
3151 2 0.517058 -1.07225 -6.87643 
1837 1 -0.263846 -1.62731 -5.83618 
2804 2 0.482644 -1.90602 -6.91444 
84 1 1.44043 -0.903621 -6.05819 
42 1 1.2513 -0.0930083 6.66543 
1374 1 1.62812 -1.53077 -7.09295 
2558 1 2.49923 -1.49461 -6.4144 
366 1 1.62471 -0.553431 -6.96048 
1111 1 3.66908 -1.30426 -6.72718 
2972 2 4.4667 -2.12877 -6.02245 
873 1 4.13386 -0.387052 -6.65212 
2477 1 4.53285 -1.16631 -7.16508 
1414 1 5.51478 -0.859499 -5.8354 
3087 2 6.83657 -1.95736 -6.65085 
1806 1 5.77783 -0.638026 -7.17707 
2840 2 6.69288 -1.16378 -6.58058 
2510 1 -7.13138 -0.521111 7.09955 
571 1 -7.03152 0.588999 -6.77045 
1841 1 -6.77134 -0.0376107 -6.30576 
3097 2 -5.62857 -0.324468 -7.00858 
3127 2 -5.89071 0.443097 -6.85596 
2300 1 -4.85298 0.395156 -6.17052 
1815 1 -3.79636 0.0331071 -6.4717 
2180 1 -4.57978 0.197968 -6.90486 
902 1 -2.58616 0.93633 -6.77278 
174 1 -2.54595 0.0156853 -6.77965 
1745 1 -3.09659 0.432315 -5.93086 
1265 1 -1.25336 -0.481526 -7.1963 
28 1 -0.514126 -0.780752 -6.32831 
2796 2 -1.84962 -0.144636 -5.94732 
2397 1 -1.80453 0.298585 -7.14583 
3088 2 0.409108 -0.311799 -6.75308 
3311 2 0.31603 0.470758 -6.5478 
2329 1 -0.906388 0.467598 -7.09386 
175 1 1.42995 0.306521 -6.79124 
530 1 2.08094 0.160477 -5.986 
2535 1 3.69431 0.263274 -6.70316 
1698 1 3.31995 -0.619726 -6.38335 
1911 1 4.69397 0.571244 -6.4313 
1895 1 5.45628 1.19978 -6.39574 
565 1 5.22164 -0.24886 -6.62739 
2086 1 5.67343 0.448028 -7.14895 
140 1 5.21113 0.257489 -5.86641 
2797 2 6.48376 -0.428994 -6.29267 
3135 2 6.36693 0.322328 -6.11552 
3140 2 -6.04469 2.12603 -6.47407 
1229 1 -6.91427 1.39209 -6.36465 
3007 2 -5.96511 1.27093 -6.7244 
1684 1 -7.04344 0.873939 -5.70603 
2386 1 -4.87725 0.957877 7.18724 
2560 1 -4.88755 1.30597 -6.22198 
3148 2 -3.66174 1.30246 7.05748 
2037 1 -3.95328 0.894933 -6.33593 
743 1 -2.83642 0.639064 -5.0561 
1238 1 -3.20955 1.22616 -6.22993 
1116 1 -2.25506 1.7075 -7.04877 
75 1 -0.755298 0.172948 -6.35427 
337 1 -1.5049 1.22443 -6.73793 
1978 1 -1.05058 2.13274 -6.56902 
1353 1 -1.86834 2.24188 -6.51552 
2928 2 0.133489 1.20602 -6.15731 
1997 1 0.974037 1.5001 -5.47419 
171 1 1.52026 1.14544 -6.19678 
225 1 1.05024 1.07044 7.17361 
3459 2 2.57367 0.0361123 -7.06404 
3393 2 2.37165 0.856485 -7.07805 
1286 1 2.96149 1.35427 -5.81958 
1185 1 4.24828 1.48979 -6.29506 
2276 1 3.45809 1.22257 -6.43828 
2072 1 5.67411 2.26782 -6.76077 
850 1 4.97683 1.96033 -6.24485 
1927 1 5.59546 2.47359 6.71933 
131 1 6.56415 2.15442 -6.99784 
3038 2 6.18787 1.16786 -5.80781 
2530 1 6.5656 1.15773 -6.88889 
3465 2 -6.27569 2.79283 -6.12776 
141 1 -4.83739 2.01436 -6.91402 
718 1 -4.78688 3.46715 6.92325 
3093 2 -3.72118 2.11077 -7.13414 
2783 2 -3.82231 2.9441 -6.99734 
1965 1 -4.87103 2.25896 -6.00294 
561 1 -3.33615 2.53574 -5.68759 
1894 1 -2.83042 2.09435 -6.42628 
1523 1 -2.64295 2.74952 -7.00846 
2508 1 -1.29587 2.91408 -5.82356 
1623 1 -0.91623 3.00611 -6.70101 
3078 2 -0.09176 2.052 -6.1471 
3444 2 -0.0590278 2.71653 -5.81215 
2000 1 0.673978 2.45571 -7.08715 
474 1 0.213371 3.16809 -7.1486 
1368 1 1.1124 1.65919 -6.58162 
1098 1 1.0476 3.03793 -6.21937 
3478 2 2.16276 2.19688 -6.74153 
3417 2 2.39933 1.5739 -6.88294 
50 1 3.89697 2.08101 -6.61837 
1113 1 3.38955 2.94742 -6.26845 
2066 1 4.00815 3.52743 -5.96368 
1916 1 3.16491 2.88411 -7.13347 
3373 2 4.57542 2.35675 6.85713 
1515 1 5.18407 3.08508 -6.38859 
122 1 -7.07734 2.67894 -7.01504 
2594 1 6.1426 2.95938 -6.73908 
2690 1 7.12964 2.10733 -6.32004 
2736 2 -6.24243 3.63863 -6.11506 
1760 1 6.92616 3.4245 -6.5928 
3238 2 -6.47267 4.42775 -5.77809 
1879 1 -6.09421 4.38531 -6.92963 
789 1 -5.20687 3.84451 -6.40949 
3408 2 -3.92402 3.69124 -6.79547 
3411 2 -4.15832 4.35715 -6.48051 
59 1 -3.22426 4.17854 -5.76745 
732 1 -2.8945 3.62406 7.16135 
343 1 -3.08078 4.68066 7.18821 
715 1 -2.84189 4.02279 -6.54638 
989 1 -1.89195 3.14957 -6.47008 
2839 2 -1.87461 4.51818 7.07936 
1224 1 -2.78595 3.20833 -6.31689 
1499 1 -2.01535 3.90003 -6.2537 
1253 1 -0.770615 4.62766 6.77413 
2626 1 -0.0622478 5.04838 -6.63426 
1198 1 -0.916871 3.91232 -6.62963 
1486 1 -0.139139 4.12073 -6.95242 
3138 2 1.77524 4.10846 -6.08803 
3466 2 2.13152 3.12281 -6.52685 
2522 1 0.694797 4.38995 -6.09452 
2673 1 0.73153 3.80257 -6.69588 
614 1 3.17963 3.68701 -6.75782 
1066 1 3.03579 4.24521 -6.24035 
96 1 2.39309 4.07369 -7.11627 
2765 2 4.2953 2.9063 -7.10892 
3551 2 4.11667 3.67805 -6.92941 
2305 1 5.38696 3.27061 7.03475 
404 1 5.64305 4.72633 -6.0728 
2092 1 4.80013 3.90544 -5.91427 
865 1 5.20939 4.07187 -6.70539 
248 1 6.10029 3.78908 -6.41403 
115 1 6.92152 3.92801 -5.75412 
577 1 -7.18757 4.28349 -6.61327 
66 1 -6.84369 5.04267 -6.93884 
3045 2 -6.74297 5.22737 -5.5675 
878 1 7.1103 5.86151 6.9873 
1669 1 -5.43495 4.59757 -6.19057 
2437 1 -5.80536 5.1782 -6.89822 
3471 2 -4.50112 5.12118 -6.23087 
3463 2 -4.44197 5.85915 -6.14771 
1140 1 -3.45432 5.8598 -6.68106 
2832 2 -2.03652 5.21494 -7.18892 
803 1 -3.19108 5.05587 -6.32145 
964 1 -3.23777 6.25329 -5.95617 
597 1 -1.11551 5.47823 7.01393 
1652 1 -1.01498 4.96101 -6.51217 
2326 1 -1.41707 4.43217 -6.02667 
849 1 0.584275 5.39946 -5.96401 
2630 1 -0.228907 6.07399 -6.48449 
2831 2 1.90585 4.82534 -6.12542 
1308 1 0.851804 4.85244 -6.76031 
215 1 1.79003 6.08299 -7.09354 
1923 1 2.81298 4.9485 -6.87925 
546 1 2.77869 5.70166 7.17527 
3223 2 4.24185 4.78696 -6.5653 
1295 1 5.23837 5.86683 -6.16272 
2088 1 5.25382 5.00292 -6.81422 
112 1 6.51639 4.63266 -6.11598 
1530 1 6.99418 5.42085 -6.41132 
2905 2 6.04496 5.80623 -7.17011 
3529 2 6.27478 5.0724 7.12198 
558 1 -6.5361 5.85815 -6.54217 
1437 1 -5.87619 -7.125 -6.84141 
1004 1 -5.88812 6.52507 -6.31029 
3150 2 -4.59752 6.71412 -6.14266 
2191 1 -5.33848 6.11299 -6.83401 
2002 1 -3.29305 -7.1767 6.95601 
1227 1 -3.76443 6.61915 -6.70855 
3454 2 -2.34931 5.90231 -6.84774 
3268 2 -2.23134 6.70593 -6.72241 
2018 1 -1.41427 -7.0761 -6.44482 
345 1 -1.33339 6.64322 -7.05592 
1394 1 -1.76928 5.45238 -5.82286 
1702 1 -1.19718 5.86965 -6.46969 
798 1 -0.595876 6.9073 -6.26168 
1709 1 0.386889 6.69062 -6.47999 
2322 1 0.46018 -6.85394 -6.61961 
2429 1 0.703 5.86612 -6.76614 
2899 2 1.6114 5.66048 -6.12569 
686 1 2.31554 6.97732 -6.44393 
492 1 2.88324 6.37681 -5.55328 
486 1 2.94507 5.18661 -6.05703 
2492 1 2.54616 6.10774 -6.34078 
2790 2 3.99261 5.502 -6.5704 
3569 2 3.70931 6.33728 -6.52742 
2787 2 5.68346 -7.07032 -7.17083 
244 1 6.14921 6.64064 -5.85502 
805 1 4.67318 6.71028 -6.91982 
1051 1 4.60227 -6.68733 -6.49673 
1234 1 3.8482 -6.2321 6.96805 
1954 1 6.63502 6.21423 -6.50682 
3539 2 5.886 6.5862 -7.14625 
1246 1 -6.09153 -6.80675 -5.96598 
2747 2 -7.1972 -6.95947 -5.31035 
3520 2 -5.02211 -6.09967 -5.71101 
1312 1 -6.25745 -6.811 -4.83406 
1344 1 -4.14139 -6.48053 -5.32919 
1252 1 -3.20112 -6.66903 -5.53124 
520 1 -2.34199 -6.34499 -5.31433 
2453 1 -3.60573 -5.9023 -5.68153 
2033 1 -2.07009 7.01757 -4.96788 
658 1 -1.74238 -7.00066 -5.7764 
3594 2 -1.07891 -6.43639 -4.96383 
3455 2 -0.877642 7.17101 -5.05811 
1881 1 0.110204 7.0126 -5.41623 
26 1 0.330894 -6.51514 -4.85447 
3128 2 1.29175 7.03363 -5.96107 
2826 2 1.1675 -6.70443 -5.72697 
1249 1 2.13838 -7.11859 -4.98841 
245 1 2.25222 -6.38948 -5.81237 
1689 1 3.04986 -6.69013 -5.2903 
1416 1 3.96568 -6.08445 -5.5256 
224 1 3.90677 -6.8106 -4.89599 
281 1 5.34997 -5.07277 -5.37413 
3290 2 4.88343 -6.32677 -4.75237 
628 1 5.10569 -6.65429 -5.9627 
274 1 5.37433 6.90879 -6.10623 
209 1 6.10101 -6.90694 -5.57541 
3487 2 7.1577 -6.16709 -5.24774 
355 1 -6.60178 -6.02622 -6.2366 
2106 1 -6.86954 -4.73765 -5.72493 
3325 2 -5.50656 -4.78839 -5.72274 
3416 2 -5.28693 -5.48122 -5.97871 
1733 1 -4.62589 -4.1392 -4.95921 
2309 1 -4.76045 -4.94583 -4.82066 
2318 1 -5.48178 -5.57459 -4.66561 
977 1 -4.36053 -4.76015 -6.08151 
1361 1 -4.43606 -5.74918 -4.92493 
2248 1 -4.05414 -5.17868 -5.48267 
1465 1 -3.75088 -4.49923 -5.20452 
2350 1 -2.43692 -5.74328 -4.80767 
1836 1 -2.2737 -5.35776 -5.68852 
909 1 -3.08386 -5.22015 -5.25841 
1582 1 -1.98379 -4.88878 -6.44429 
3322 2 -1.33495 -5.66448 -4.95694 
3480 2 -1.66068 -5.04701 -4.73513 
2491 1 -0.379726 -5.41427 -5.81172 
1945 1 -0.115876 -6.06567 -5.35358 
1425 1 1.97366 -5.28993 -4.98043 
3068 2 1.06381 -5.91198 -5.74194 
2768 2 0.689509 -5.21062 -5.39066 
1799 1 1.12676 -5.10974 -4.35584 
1905 1 2.13038 -5.45608 -5.84625 
2256 1 2.8529 -5.93203 -5.14821 
2113 1 2.77547 -5.15792 -4.95251 
1075 1 3.62928 -5.7964 -4.8003 
2150 1 4.70432 -5.68393 -5.72675 
847 1 4.04692 -5.07574 -5.27536 
1000 1 6.03725 -6.35176 -4.5863 
2462 1 5.8029 -5.38004 -4.76906 
1320 1 5.98779 -4.91005 -3.96189 
1724 1 5.9455 -5.92859 -5.46706 
2828 2 6.92237 -5.48287 -4.99061 
3010 2 6.62326 -4.5379 -4.93935 
1325 1 -6.98203 -5.3617 -6.397 
2721 1 7.02927 -3.73046 -5.83503 
1671 1 -4.92294 -2.80069 -5.83513 
2912 2 -5.6917 -3.98149 -5.48385 
2737 2 -5.92488 -3.25644 -5.42409 
1784 1 -4.49291 -3.97782 -5.65112 
1864 1 -4.54007 -3.17977 -5.26174 
2426 1 -2.43944 -4.50363 -5.48686 
1979 1 -2.99394 -3.79623 -4.88292 
484 1 -2.40992 -3.43282 -5.41719 
2238 1 -1.66524 -4.30356 -5.85179 
2139 1 -1.44529 -3.22626 -5.43239 
2105 1 -0.492744 -3.59927 -5.82722 
1722 1 -0.933482 -4.60108 -5.44924 
3227 2 0.50708 -4.51479 -5.39473 
799 1 1.53036 -3.6149 -5.38845 
3249 2 2.72142 -4.26225 -5.76481 
1385 1 3.86921 -4.18013 -5.33845 
2145 1 3.19975 -4.53995 -4.67799 
589 1 4.85674 -4.45599 -5.44923 
2656 1 5.85611 -4.66946 -5.7477 
190 1 5.27591 -3.81554 -4.84742 
802 1 6.17828 -3.47754 -5.91259 
3080 2 6.48801 -3.79347 -4.76626 
831 1 -7.01111 -3.23296 -5.15562 
2974 2 -6.25186 -1.93685 -5.21037 
1800 1 -4.96046 -1.42751 -5.77716 
2890 2 -5.8148 -2.48113 -5.12635 
477 1 -4.0073 -2.427 -4.72275 
2869 2 -3.64351 -3.16453 -5.73473 
2674 1 -4.48733 -1.44704 -4.45967 
1790 1 -3.86926 -3.49286 -4.83564 
1953 1 -2.57125 -2.63952 -5.33128 
1928 1 -3.20923 -2.70939 -4.64868 
2480 1 -1.83209 -2.34188 -5.32888 
1028 1 -0.762345 -3.92123 -4.91979 
851 1 -0.468985 -2.66612 -5.71349 
3430 2 0.486448 -3.81395 -5.07954 
3354 2 0.21852 -2.92901 -4.98816 
1738 1 0.469873 -2.31026 -5.94971 
1611 1 1.22214 -2.76003 -5.75536 
247 1 2.12655 -3.25753 -4.57891 
2434 1 1.46146 -2.79903 -4.76138 
3014 2 2.58775 -3.39151 -5.56181 
2830 2 2.39657 -2.59779 -5.58683 
480 1 2.98824 -2.66561 -4.36468 
1313 1 3.71806 -2.40099 -5.10975 
153 1 4.55042 -3.65011 -5.27577 
110 1 4.42342 -2.82923 -5.11317 
734 1 5.23244 -3.00876 -5.04559 
2352 1 5.86716 -1.79102 -5.91988 
659 1 6.42666 -2.65591 -5.66553 
2858 2 6.17748 -2.19384 -4.55215 
720 1 7.15067 -0.825836 -5.19776 
2993 2 -6.01582 -1.36595 -4.89078 
960 1 -7.09302 -2.40287 -4.94791 
56 1 -5.02268 -1.13547 -4.96325 
2844 2 -3.72558 -2.50087 -6.05199 
3543 2 -3.68171 -1.74698 -5.71564 
1380 1 -1.22631 -1.36757 -5.06031 
969 1 -2.0143 -1.44557 -5.28662 
1057 1 -1.00645 -2.04992 -5.41911 
1074 1 -1.0239 -2.27281 -4.62117 
1618 1 0.458803 -0.945395 -5.80991 
1971 1 -0.692495 -0.732756 -5.42962 
1777 1 0.955787 -1.7092 -5.52589 
3585 2 0.0436496 -2.05585 -4.76262 
2187 1 1.23654 -2.03477 -4.76497 
3356 2 2.3571 -1.89292 -5.34367 
3557 2 2.07184 -1.11367 -5.17704 
859 1 3.19282 -1.36835 -5.91662 
2995 2 4.44788 -1.29948 -5.96199 
1472 1 4.39183 -1.71613 -4.79476 
2336 1 4.71801 -0.89744 -4.59732 
76 1 3.05211 -0.462965 -5.52357 
656 1 5.23144 -1.32506 -5.16059 
1648 1 4.79224 -0.0105289 -4.33206 
1207 1 6.4991 -1.81167 -5.49252 
346 1 6.39062 -0.952419 -5.34372 
1145 1 7.12495 -1.61979 -4.7302 
253 1 6.92179 -0.261945 -4.47427 
2151 1 7.18245 0.0317993 -5.41558 
3267 2 -6.24873 -0.644272 -4.92854 
90 1 -5.53978 0.700296 -5.88683 
1151 1 -5.84844 -0.441769 -5.94144 
408 1 -5.13736 -0.417003 -5.55472 
493 1 -5.41562 0.281299 -5.13505 
3256 2 -3.86245 -0.9313 -5.51049 
3144 2 -4.06255 -0.186256 -5.45681 
2077 1 -2.04661 -0.655395 -5.04519 
827 1 -2.90493 -0.919507 -4.78654 
2605 1 -3.32835 -0.264454 -4.5172 
580 1 -2.86692 -0.244309 -5.57103 
857 1 -2.19687 0.144777 -4.69164 
400 1 -1.09192 0.0251723 -5.18093 
2939 2 -1.9614 0.647181 -5.86088 
1432 1 -0.106354 -0.0989052 -5.65379 
1890 1 0.697967 -0.310272 -5.45655 
1713 1 0.996505 0.64852 -5.48086 
925 1 1.30091 -0.127135 -5.98483 
3383 2 1.81056 0.555192 -4.7806 
1700 1 1.07504 -0.998832 -4.6795 
3449 2 2.02283 -0.189715 -5.01695 
886 1 2.86538 0.726109 -5.27106 
2730 1 2.96265 0.260283 -6.06796 
236 1 2.25138 -0.659412 -6.18985 
2848 2 4.0808 0.217084 -5.61494 
3317 2 4.30555 -0.567371 -5.61706 
1830 1 5.31684 -0.194125 -5.13649 
823 1 4.72424 0.238655 -3.6025 
1568 1 5.01185 1.285 -5.4172 
319 1 4.68577 0.686369 -4.58203 
2297 1 6.26357 0.110057 -4.95768 
1402 1 6.90919 0.975648 -4.93818 
806 1 -7.1694 1.6719 -5.46897 
499 1 -6.20742 1.28442 -5.67236 
1369 1 -6.34007 0.394555 -5.73981 
1607 1 -5.44286 1.21809 -5.22062 
928 1 -6.40152 2.10002 -5.37711 
2861 2 -4.13617 0.590501 -5.29467 
1483 1 -4.00068 1.78373 -6.15947 
2320 1 -3.26938 1.56163 -5.35637 
2846 2 -2.00953 1.3951 -5.68784 
1880 1 -1.59122 0.835859 -4.7368 
2208 1 -1.00634 1.27774 -6.07158 
1775 1 -1.24004 1.89974 -4.78587 
867 1 0.0382271 0.690333 -5.20246 
1661 1 -0.880163 0.815348 -5.3613 
2406 1 0.221282 1.65075 -5.01221 
3443 2 1.61605 1.36167 -4.59703 
1296 1 0.931029 -0.0396858 -4.66638 
970 1 2.22308 0.954439 -5.78903 
2575 1 3.10646 1.25123 -4.60133 
673 1 1.96509 1.79896 -5.5853 
3364 2 4.05589 0.886711 -5.3585 
3388 2 3.83944 1.75433 -5.17052 
2068 1 4.4962 1.7047 -4.2926 
2584 1 5.02601 2.26626 -5.36222 
2130 1 5.25213 1.58166 -4.78309 
1200 1 6.16284 1.46281 -4.83862 
3060 2 6.21965 1.98071 -5.83396 
34 1 5.53593 0.730457 -4.91765 
817 1 6.55698 2.30313 -3.73706 
13 1 -7.12356 2.74698 -5.12451 
2541 1 6.80341 2.05769 -4.74197 
443 1 -5.51672 2.07737 -5.44272 
822 1 -6.24785 2.89289 -5.01242 
1335 1 -4.91444 3.05341 -6.48181 
3062 2 -4.3524 1.36205 -5.00298 
2845 2 -4.39115 2.22749 -4.91835 
2523 1 -4.27221 2.84206 -5.85042 
3117 2 -2.18607 2.00358 -5.31913 
2490 1 -3.27726 3.00272 -4.91327 
2945 2 -2.35816 2.78975 -5.31317 
1933 1 -1.1105 2.21085 -5.78996 
2489 1 -1.71325 2.4407 -4.29461 
1375 1 0.782262 2.35758 -5.10706 
46 1 -0.631526 1.67207 -5.22003 
1763 1 0.679421 3.16562 -4.89613 
221 1 1.17578 2.31346 -5.92788 
1889 1 3.07726 2.21687 -6.0853 
47 1 2.62791 1.88196 -4.95473 
785 1 2.38789 2.53734 -5.59278 
1644 1 2.59477 2.86817 -4.76916 
3433 2 3.68841 2.49428 -5.17687 
2327 1 4.79216 3.12712 -5.40907 
941 1 4.62335 2.50334 -4.49607 
1883 1 4.41495 2.68224 -6.10857 
1584 1 7.06555 3.04005 -5.90188 
3414 2 6.04431 2.7053 -5.64114 
2440 1 6.62387 2.89987 -4.57589 
1169 1 -5.64021 3.15785 -4.59494 
698 1 -6.62201 3.7475 -5.03573 
60 1 -6.99455 4.9285 -4.71952 
297 1 -5.83117 4.07709 -4.57012 
2200 1 -5.40169 3.01799 -5.5709 
3456 2 -4.4716 2.9654 -4.71926 
2268 1 -5.34485 3.8303 -5.223 
668 1 -4.42649 3.65461 -5.72535 
1833 1 -4.03022 4.26955 -5.35447 
1543 1 -3.51804 3.39891 -5.65839 
2687 1 -2.94728 3.62975 -4.19264 
2977 2 -2.28567 3.53793 -5.22266 
2865 2 -2.42113 4.3154 -5.14706 
1744 1 -1.0203 2.80743 -4.87262 
883 1 -1.21348 3.77211 -5.44475 
1056 1 -1.39009 3.3812 -4.4112 
2813 2 -0.194563 3.3877 -5.9497 
3378 2 -0.182915 4.12316 -5.66156 
353 1 -0.175758 2.60454 -4.82799 
2271 1 1.01409 3.81239 -5.44595 
894 1 0.463621 4.11492 -4.72697 
588 1 2.99079 3.44044 -5.81157 
1639 1 1.68576 3.02983 -5.42615 
103 1 2.47457 3.64102 -5.25217 
1422 1 2.28446 4.27634 -4.58244 
268 1 3.76476 4.30307 -5.73266 
2894 2 3.70705 3.25016 -4.89429 
3013 2 3.49211 3.97311 -4.60076 
1398 1 4.96642 3.93306 -4.41867 
3298 2 5.94063 3.47955 -5.43338 
2917 2 5.78171 4.24446 -5.19705 
1466 1 5.95818 3.51281 -4.36195 
1939 1 6.8924 3.72309 -4.71754 
1060 1 -6.64926 5.85913 -4.33948 
3147 2 -6.98549 6.00858 -5.44061 
2573 1 -5.60181 4.99763 -5.114 
2396 1 -5.71987 5.50472 -5.93851 
2308 1 -4.80569 4.52574 -5.36761 
683 1 -5.88123 5.90842 -4.76917 
2376 1 -3.60915 5.17789 -5.52989 
1862 1 -3.39021 3.78948 -4.83218 
1235 1 -4.2158 5.25555 -4.77901 
1396 1 -2.58751 5.57187 -5.78018 
3458 2 -2.48717 5.00352 -4.78484 
2988 2 -2.97685 5.56829 -4.56 
287 1 -2.34672 4.76088 -6.15728 
1665 1 -1.42074 4.83664 -5.18533 
1577 1 -1.63418 5.79731 -5.01743 
3392 2 -0.41667 4.99399 -5.68911 
1435 1 0.383028 5.07564 -4.73988 
324 1 1.53888 4.30531 -5.03947 
1521 1 0.834434 4.86224 -5.40979 
586 1 1.57481 5.3481 -4.88656 
23 1 2.45287 5.11789 -4.96032 
372 1 2.83701 4.54123 -5.51061 
295 1 3.66143 5.0595 -5.42348 
2669 1 4.62011 5.56837 -5.61213 
2028 1 4.48172 4.69776 -4.61153 
2231 1 4.49629 4.097 -5.13636 
1513 1 4.54037 6.64539 -6.03563 
1247 1 4.79074 4.80318 -5.59779 
2927 2 5.58771 5.04056 -4.90588 
3257 2 5.45987 5.88583 -4.96568 
795 1 5.93762 5.71358 -6.10584 
1667 1 6.77427 4.68596 -5.15015 
2539 1 6.85055 5.86601 -4.5973 
2574 1 -6.34674 6.63274 -4.68661 
3330 2 -6.88665 6.77339 -5.66946 
2023 1 -4.97175 7.02499 -4.88366 
1616 1 -5.46745 6.16181 -5.57897 
1490 1 -4.85794 5.53189 -5.21033 
1893 1 -4.45363 6.28863 -4.97425 
1725 1 -3.74248 6.01747 -5.25508 
1691 1 -3.91785 7.08567 -5.32118 
1619 1 -2.74107 6.90784 -5.56573 
786 1 -1.48073 6.52206 -5.93473 
3207 2 -0.524456 5.68328 -5.30153 
3018 2 -0.832117 6.44448 -5.16204 
1141 1 0.829645 5.81596 -5.09577 
1567 1 0.34566 6.2796 -5.66533 
2038 1 0.0383168 -7.19553 -4.35 
1107 1 0.631964 6.75894 -4.71239 
2978 2 1.49662 6.37847 -5.83859 
862 1 3.48401 6.92795 -5.28959 
504 1 2.51045 5.6735 -5.41728 
302 1 3.49956 5.85132 -5.51684 
2168 1 2.21155 6.41737 -4.95898 
1992 1 4.10845 6.27584 -5.34105 
451 1 4.41515 5.65865 -4.6241 
2971 2 5.20414 6.75237 -5.01401 
2926 2 5.05925 -7.07079 -4.67148 
2136 1 6.44518 6.57664 -4.9604 
16 1 6.37535 5.68086 -5.37243 
1718 1 -6.12532 -6.00033 -5.49946 
1673 1 -6.69502 -7.05981 -3.97179 
2029 1 -6.27417 -5.93479 -4.59902 
1481 1 -5.4262 -6.49873 -4.92709 
3228 2 -5.63831 -6.74598 -3.81805 
1885 1 -4.34254 -6.90882 -4.59419 
2332 1 -4.15718 6.64114 -4.26101 
3413 2 -3.30061 -6.50931 -4.39742 
1506 1 -2.35107 -7.06147 -3.67634 
2439 1 -2.08035 -6.44149 -4.19694 
1086 1 -2.37436 -6.00294 -3.58527 
356 1 -1.31599 -7.07698 -4.00942 
1629 1 -0.241754 -5.71007 -4.41388 
3236 2 0.530284 -5.99068 -3.39647 
3056 2 0.856893 -6.68098 -3.63909 
635 1 0.838007 -5.96827 -4.49742 
1747 1 -0.353914 -6.43208 -4.02865 
2096 1 1.39505 6.35214 -4.73477 
1382 1 1.58132 -5.91465 -4.17746 
1967 1 1.33238 -6.97626 -4.70053 
1694 1 1.84305 -6.50781 -3.60537 
3303 2 2.76242 -6.38227 -4.08105 
440 1 3.88961 -6.23039 -3.97799 
709 1 4.16996 -7.07485 -3.88848 
168 1 5.66919 -5.77096 -3.71152 
929 1 5.60461 6.74749 -3.67792 
200 1 5.35922 -6.67706 -2.77172 
538 1 5.495 -6.64548 -3.68293 
2571 1 6.49223 -5.66411 -4.07394 
610 1 6.74448 -6.65503 -4.15875 
1872 1 -6.37061 -5.24415 -5.26199 
2896 2 -5.97256 -4.94812 -3.57246 
3375 2 -5.72105 -5.87579 -3.61636 
2459 1 -4.81181 -6.37093 -4.36221 
1148 1 -4.25165 -6.80891 -3.61264 
3562 2 -3.5711 -5.81003 -4.44573 
3536 2 -3.55949 -5.11754 -4.13163 
2524 1 -2.60432 -5.38805 -4.07332 
2310 1 -2.80661 -4.59094 -4.6387 
104 1 -1.38699 -6.15466 -3.8888 
1431 1 -1.19103 -4.31019 -3.60668 
6 1 -1.69733 -5.40746 -3.70576 
531 1 -0.740177 -6.02912 -3.32336 
15 1 -0.407221 -4.95314 -4.94158 
401 1 -0.946196 -5.12601 -3.8843 
2969 2 -0.0110408 -5.34934 -3.29731 
1998 1 1.90406 -6.19395 -4.81039 
27 1 0.278775 -4.89914 -4.28709 
1511 1 1.37888 -5.43872 -3.45599 
2918 2 2.67763 -5.62923 -3.90773 
3379 2 2.19638 -5.00608 -3.83772 
893 1 3.51851 -5.08902 -3.98341 
2469 1 3.51572 -5.81495 -3.15951 
1878 1 3.13654 -4.77876 -3.02884 
2825 2 4.7984 -5.61542 -4.35667 
85 1 6.21228 -4.07934 -3.83821 
144 1 5.31737 -4.86969 -3.56841 
3340 2 4.55369 -4.79406 -4.30401 
1994 1 -6.62994 -4.99344 -4.44937 
1955 1 -6.85814 -4.20354 -4.21511 
472 1 -6.75403 -4.17099 -5.07913 
1658 1 7.03962 -3.48434 -3.80812 
517 1 -6.62705 -3.32493 -4.44438 
1609 1 -5.03811 -3.70297 -4.41066 
1071 1 -4.97895 -2.87984 -4.53211 
874 1 -5.79979 -4.62629 -4.62524 
992 1 -4.96304 -4.57476 -3.85017 
2227 1 -5.20754 -3.7862 -3.36323 
3376 2 -3.95563 -4.39417 -4.0014 
3083 2 -4.04126 -3.59674 -3.84273 
458 1 -2.10343 -4.69948 -3.68895 
647 1 -2.8973 -3.61722 -4.06087 
1127 1 -1.36461 -3.84885 -2.73481 
180 1 -1.09573 -3.33617 -3.4104 
3285 2 -1.73966 -4.30259 -4.60664 
2916 2 -1.77849 -3.4833 -4.26089 
2102 1 -0.411789 -4.30871 -4.33304 
954 1 -0.530827 -3.40701 -4.10215 
393 1 1.51014 -4.38642 -4.91644 
632 1 0.434812 -4.07282 -3.96968 
566 1 1.33738 -3.86031 -4.38225 
1327 1 1.00254 -4.64789 -3.65892 
891 1 2.28623 -4.29503 -4.75163 
665 1 3.16442 -4.21562 -3.68528 
3230 2 2.08859 -4.32206 -3.68714 
3015 2 2.12304 -3.57199 -3.44531 
1653 1 3.00032 -3.65677 -2.71531 
3244 2 4.2497 -4.09602 -4.12472 
2857 2 4.0156 -3.34958 -4.01225 
1034 1 5.5696 -4.59874 -4.64607 
335 1 5.38127 -4.06296 -3.94843 
431 1 6.23043 -3.19413 -3.62944 
3173 2 6.2822 -2.95489 -4.70411 
1496 1 6.84706 -3.26963 -2.86365 
1144 1 -5.82201 -3.80082 -4.3571 
1449 1 -5.62761 -2.34477 -3.33491 
1299 1 -6.24119 -2.64575 -4.08552 
935 1 -5.5824 -3.02766 -3.80379 
2388 1 -4.77256 -2.11864 -5.12731 
3229 2 -4.21556 -2.77316 -3.78158 
2638 1 -3.1098 -2.80571 -3.85012 
3198 2 -1.98036 -2.68141 -4.34099 
2083 1 -2.35354 -3.19422 -3.2966 
139 1 -0.916574 -3.16978 -4.87654 
322 1 -1.60047 -2.92862 -2.94172 
1266 1 -1.42329 -2.20015 -3.47289 
2044 1 -0.70189 -2.56618 -3.74064 
984 1 0.294893 -2.06527 -3.69141 
607 1 0.190454 -2.98024 -3.84605 
1843 1 0.937656 -2.3877 -4.01633 
1069 1 1.02034 -3.29112 -3.88858 
1863 1 3.53709 -3.36064 -5.01585 
999 1 3.14332 -3.28438 -3.56223 
1237 1 2.91894 -3.60442 -4.33667 
303 1 2.78927 -2.20786 -3.66667 
3353 2 3.96961 -2.46513 -3.97018 
72 1 5.37881 -3.25821 -4.15072 
148 1 5.20163 -2.11717 -5.1228 
1703 1 4.93182 -3.57094 -3.4463 
2211 1 4.9828 -2.54692 -4.25712 
2365 1 4.75875 -2.57773 -3.20678 
1551 1 7.18871 -2.58448 -4.10061 
2507 1 5.54398 -2.25772 -3.64145 
1301 1 -6.26764 -1.80808 -4.02141 
52 1 -6.21228 -0.896403 -3.58959 
808 1 -5.52918 -1.39991 -3.2885 
1446 1 -5.16936 -2.00317 -4.16447 
1514 1 -5.34327 -1.26489 -4.1246 
2132 1 -4.044 -0.572449 -4.19234 
871 1 -2.88594 -1.7686 -5.00539 
3447 2 -4.4199 -1.97705 -3.44556 
1835 1 -3.59198 -1.24087 -4.45054 
1316 1 -3.45668 -0.934579 -3.72038 
3470 2 -4.55832 -1.14156 -3.38071 
2465 1 -3.39591 -2.00195 -4.03042 
2748 2 -2.32306 -1.23798 -3.95637 
2766 2 -2.17117 -1.92196 -4.24299 
2395 1 -0.543594 -1.65473 -3.67341 
2057 1 -1.17636 -1.39831 -4.2115 
2542 1 -0.0752072 -1.0261 -3.32736 
3500 2 0.016746 -1.23841 -4.68928 
1969 1 0.240749 -0.533868 -2.5877 
202 1 2.25052 -2.21604 -4.31406 
858 1 0.757577 -1.28447 -3.86172 
922 1 1.67512 -1.55441 -4.27968 
2306 1 3.0945 -1.83444 -4.70021 
169 1 2.63962 -1.27612 -4.01611 
3134 2 3.76143 -1.55706 -3.842 
2914 2 3.71474 -0.78288 -3.63283 
2299 1 4.98957 -1.49766 -4.00274 
1575 1 6.78811 -0.886143 -3.4025 
423 1 5.73417 -1.50683 -3.18163 
3116 2 6.03986 -1.36897 -4.39279 
2856 2 5.88036 -0.609619 -4.06379 
523 1 -7.13518 -1.50059 -3.92364 
3186 2 -6.39733 0.0538726 -4.68155 
1627 1 -6.71995 0.0777323 -3.56579 
385 1 -5.54577 -0.291214 -4.04381 
181 1 -6.25183 0.75318 -3.2524 
111 1 -3.5726 -0.0200501 -3.41973 
2423 1 -4.78136 -0.410567 -4.56782 
882 1 -3.73347 0.0805299 -2.50959 
2789 2 -2.33792 -0.571689 -3.70953 
3490 2 -2.63812 0.243611 -3.7196 
2601 1 -3.65823 0.484896 -4.30273 
1531 1 -1.40814 -0.399609 -4.37026 
2241 1 -0.95881 -0.485094 -3.61583 
3555 2 -0.320103 -0.617288 -4.45319 
2950 2 -0.180019 0.0669685 -4.34464 
1706 1 0.475277 -0.361093 -3.43292 
2237 1 1.04943 -0.450146 -3.87119 
446 1 0.345931 0.507237 -3.43185 
692 1 0.991592 0.453314 -3.93939 
2013 1 3.13304 -0.784017 -4.62229 
1337 1 2.9863 0.146756 -4.6594 
2722 1 1.88533 -0.740738 -4.00917 
483 1 3.68084 -1.34677 -5.09535 
455 1 4.83564 0.867107 -2.61912 
3483 2 3.57287 -0.180694 -3.3564 
2902 2 5.7743 0.160699 -3.84491 
1548 1 4.87783 -0.779877 -3.58382 
1999 1 -7.01621 -0.640195 -3.9736 
3263 2 -6.36213 0.769511 -4.56853 
3260 2 -6.54132 1.60901 -4.48058 
1793 1 -5.09863 0.464073 -4.39766 
2061 1 -5.51439 1.48712 -4.40227 
500 1 -4.84821 1.25034 -4.06203 
2278 1 -4.32006 0.371898 -4.01237 
2177 1 -3.7219 0.915514 -3.20494 
2529 1 -3.16151 1.23659 -4.4376 
978 1 -4.01346 2.11225 -3.41263 
3588 2 -2.68918 1.04628 -3.43643 
1002 1 -2.35198 1.27963 -4.60091 
1910 1 -1.47794 0.400971 -3.98894 
1484 1 -1.77458 1.49619 -3.97455 
2708 1 0.638852 1.10963 -4.68047 
3196 2 -0.449899 0.864629 -4.13447 
2 1 0.649636 1.33532 -3.78804 
2328 1 1.51616 1.19497 -3.3788 
254 1 2.19814 1.47504 -3.66881 
583 1 1.85009 0.240608 -3.60304 
130 1 2.43638 -0.119016 -2.89545 
296 1 3.88184 -0.253042 -4.62648 
840 1 4.537 1.8802 -2.71088 
1364 1 3.83524 0.574243 -4.22692 
234 1 4.60343 1.20259 -3.5312 
2819 2 5.70599 0.967899 -3.73786 
3209 2 5.54378 1.76664 -3.60777 
654 1 6.74168 0.507627 -4.31172 
1781 1 6.82525 1.52398 -4.04879 
3033 2 -6.66092 2.31557 -4.1547 
2751 2 -6.90427 3.07342 -3.97691 
412 1 -5.57317 2.58272 -3.73229 
2383 1 -4.93146 2.11313 -3.97561 
491 1 -5.49569 2.25064 -4.53673 
120 1 -4.73247 3.02109 -3.61511 
697 1 -3.94661 1.30044 -3.86126 
358 1 -4.04127 2.89474 -2.82927 
2436 1 -3.40621 2.17359 -4.37934 
1986 1 -2.23671 3.39747 -4.13845 
154 1 -2.54074 2.32778 -4.25428 
892 1 -1.73092 2.77509 -3.43757 
3006 2 -0.682726 2.45815 -3.71244 
2860 2 -0.54048 1.58693 -4.01141 