ITEM: TIMESTEP
3800
ITEM: NUMBER OF ATOMS
3594
ITEM: BOX BOUNDS pp pp pp
-7.1931637467486738e+00 7.1931637467486738e+00
-7.1931637467486738e+00 7.1931637467486738e+00
-7.1931637467486738e+00 7.1931637467486738e+00
ITEM: ATOMS id type x y z 
2727 1 -7.00664 -6.91661 -6.37061 
1140 1 -5.60361 -6.47914 -6.68405 
1654 1 -4.52372 -6.4481 -7.03072 
2396 1 -5.09603 7.16499 7.06572 
196 1 -4.33437 6.88039 -7.07888 
358 1 -3.84776 -6.75533 -6.23812 
1004 1 -3.68347 6.81341 -6.26682 
3268 2 -2.99225 -5.62381 -6.28344 
3454 2 -2.56783 -6.29799 -6.52236 
512 1 -1.60779 -6.7665 -7.19484 
3537 2 -0.550213 -6.58294 -7.01814 
3259 2 -0.319973 6.93584 7.13272 
2113 1 0.977124 -6.02859 -6.68911 
2265 1 0.267527 -6.33498 -6.37426 
891 1 1.11494 -5.30252 -6.32313 
1100 1 2.38436 -6.5491 -6.95467 
1333 1 2.84186 6.9205 6.759 
3587 2 3.30666 -6.73459 -6.09219 
3442 2 3.28088 -5.95742 -5.9539 
2051 1 4.44598 -6.06601 -6.23633 
2623 1 4.49887 -6.95571 -5.98208 
3208 2 5.3718 -6.17301 -6.82541 
2812 2 5.16485 -5.33183 -6.68893 
1772 1 5.95042 -6.30031 -5.63663 
1258 1 6.64881 -6.52978 -6.85659 
3495 2 -6.96004 -5.09009 7.07532 
558 1 -7.18521 -6.00887 -6.18742 
1282 1 -6.15644 -5.4046 -6.43317 
1406 1 -5.51759 -5.35629 6.747 
477 1 -5.29001 -5.75275 -6.93244 
2114 1 -4.07719 -4.86739 -6.93638 
1784 1 -4.3829 -5.60489 -6.80854 
606 1 -3.5157 -5.91255 7.1536 
2944 2 -3.11321 -4.91493 -6.2103 
386 1 -2.75679 -4.70791 7.16183 
2619 1 -1.8389 -5.79026 7.16133 
3019 2 -0.740257 -4.94041 -6.89422 
1702 1 -2.03616 -5.09186 -6.70722 
3368 2 -0.7205 -5.83291 7.19805 
2321 1 0.453176 -5.58937 6.9788 
2298 1 0.291345 -5.40174 -6.57007 
139 1 -0.0628319 -5.24695 -4.88356 
1210 1 -0.134769 -5.86007 -5.98149 
2178 1 1.91134 -6.00203 -6.20499 
1313 1 1.96799 -5.51014 -5.3524 
1966 1 -0.0128667 -4.87338 -5.91712 
799 1 2.4687 -4.59302 -7.07678 
2957 2 3.06393 -5.15975 -5.89692 
1373 1 4.15889 -5.14017 -6.26979 
2062 1 2.72256 -5.71568 -7.08688 
2287 1 3.16572 -4.91025 -6.99131 
3212 2 5.10622 -4.51463 -6.50538 
284 1 6.24436 -4.91485 -6.98002 
2686 1 7.0177 -4.92999 -6.29291 
66 1 6.43709 -5.68851 -6.37857 
601 1 -6.36115 -3.44724 -6.20294 
1954 1 -7.01552 -4.07478 -5.7916 
2641 1 -5.55349 -3.65481 -6.69169 
2042 1 -4.8823 -3.89673 -6.32001 
1918 1 -4.8699 -4.89232 -6.45801 
1280 1 -4.2132 -4.13154 -6.75597 
2981 2 -3.48217 -3.32753 -5.80828 
83 1 -4.2391 -3.13802 -6.45718 
909 1 -3.48817 -4.18951 7.12495 
3574 2 -3.39048 -4.20639 -6.14199 
1800 1 -2.7704 -3.56512 -6.86494 
2139 1 -2.13442 -4.25501 -6.69878 
3484 2 -0.777503 -4.143 -6.62433 
2808 2 -1.13332 -3.30564 -6.44033 
15 1 -0.587462 -4.75085 -5.36353 
2697 1 0.746857 -4.37172 -6.1558 
2492 1 2.07895 -5.09375 -6.40795 
502 1 2.31618 -3.89018 -6.74963 
886 1 1.55747 -4.0588 -6.32904 
19 1 3.26643 -3.92823 -6.78495 
1635 1 2.39193 -4.7193 6.4904 
1215 1 3.98518 -4.38363 -6.93974 
1471 1 4.0394 -3.13268 -6.88478 
2306 1 3.96145 -3.89657 -5.99134 
1770 1 3.70385 -3.00141 -5.95546 
3266 2 4.98824 -3.8226 -6.29493 
2767 2 4.90487 -3.09675 -6.04796 
3029 2 -7.00159 -4.30631 -7.04079 
2975 2 7.12481 -3.59892 -6.98489 
2068 1 5.90948 -3.72407 -6.7747 
377 1 5.96465 -3.05235 -6.33461 
1496 1 -6.29443 -2.18759 -6.88137 
2664 1 -6.77433 -1.50961 7.02819 
2130 1 -5.96306 -2.81624 -6.34589 
2699 1 -5.15545 -2.87331 -6.23866 
1465 1 -4.57558 -2.3707 -5.80311 
1445 1 -3.65837 -3.31437 -7.059 
911 1 -2.16965 -3.48392 -6.1267 
2627 1 -3.09826 -2.70119 -6.79111 
2549 1 -2.56029 -2.80502 -5.85421 
2490 1 -2.32427 -1.38061 -6.67874 
3332 2 -1.24598 -2.49172 -6.43768 
1425 1 0.238503 -3.72439 -6.71056 
2024 1 -0.152555 -1.90235 -6.53555 
3503 2 0.954922 -3.0527 7.20234 
3347 2 1.05682 -2.25472 -6.97511 
644 1 1.41153 -1.40464 -5.60481 
2368 1 0.836813 -3.33503 -6.10778 
1837 1 2.30128 -3.12098 7.17908 
1976 1 2.99199 -2.83936 -6.67862 
72 1 2.98577 -1.84653 -6.44782 
2407 1 4.02873 -2.24859 -6.78725 
538 1 3.6145 -2.00063 -6.00208 
1354 1 4.56774 -3.71491 7.02156 
3550 2 4.75109 -2.27336 -5.95269 
2972 2 4.82845 -1.56912 -5.70184 
483 1 6.10423 -3.30073 6.87046 
3126 2 7.0371 -2.91478 -6.68908 
1385 1 6.58989 -2.14063 -5.38483 
1301 1 -6.22915 -1.49635 -6.19279 
1138 1 -5.54767 -0.977285 -5.74725 
1340 1 -6.38724 -1.06197 -6.8467 
1514 1 -5.52301 -1.97843 -5.87701 
3097 2 -5.32924 -1.3465 -6.89687 
3127 2 -5.37361 -0.546461 -6.83382 
1986 1 -3.64256 -1.37759 -6.71667 
499 1 -4.45464 -1.68655 -6.22374 
1669 1 -3.43834 -0.716827 -6.32179 
493 1 -3.94387 -2.27169 -6.64666 
1315 1 -3.03059 -1.92613 -6.31931 
3234 2 -1.39857 -1.64993 -6.15901 
428 1 -0.122792 -1.72609 7.01244 
3105 2 -1.39771 -0.781894 -5.94968 
1106 1 0.527426 -1.70573 -5.78693 
2804 2 0.734051 -1.52727 -7.00202 
3151 2 0.77748 -0.913525 -6.56543 
2105 1 1.92124 -1.2218 -6.3756 
2500 1 1.69888 -0.343136 -6.91376 
925 1 2.71758 -0.864106 -6.16926 
1462 1 1.86207 -1.27246 -7.19655 
2483 1 4.88781 -2.36093 -7.07796 
2220 1 4.2476 -1.49707 -6.92709 
366 1 5.20074 -1.50461 -6.6827 
1895 1 4.73494 -0.743929 -6.5763 
2223 1 5.91282 -1.55895 -5.54848 
110 1 5.96887 -2.11176 -6.22825 
2414 1 5.82018 -0.841867 -6.81362 
3087 2 7.06011 -2.27271 -6.35921 
2840 2 6.9273 -1.56418 -6.42264 
2423 1 -6.77276 0.0768441 -6.32324 
2637 1 -7.13236 0.722659 -6.92074 
1369 1 -6.66579 0.477803 -5.60594 
857 1 -4.92275 -0.331205 -5.73065 
720 1 -5.7155 -0.0356136 -5.5162 
3007 2 -5.72611 0.0426444 -6.69186 
1474 1 -4.53761 0.0836784 -6.96512 
882 1 -3.93786 0.199704 -6.25275 
12 1 -3.09463 0.026783 -5.96246 
1933 1 -2.65137 0.66598 -6.57025 
1264 1 -3.2633 0.852117 -5.82155 
1353 1 -2.41799 -0.545638 -6.84875 
2289 1 -0.680481 -1.264 -6.92673 
1993 1 -1.42029 -0.635878 -7.06763 
1057 1 -0.5217 -0.398803 -6.21056 
3200 2 -1.88529 -0.0567007 -5.82349 
2591 1 -0.271178 -1.18214 -6.16271 
3088 2 0.391021 -0.118252 -6.47415 
769 1 1.30861 0.535668 -6.53728 
2605 1 1.6583 -0.491912 -5.92677 
3195 2 2.87714 -0.0137161 -7.04319 
2960 2 2.45412 0.58132 -6.89706 
1241 1 2.41529 -0.0118615 -6.03102 
2535 1 3.22663 0.00120866 -6.03114 
588 1 3.09189 0.931272 6.521 
2183 1 4.54491 0.42323 -6.69871 
1286 1 3.8328 0.586874 -6.34718 
2617 1 3.93911 -0.414211 -6.51665 
2631 1 5.06777 -0.0813845 -6.11916 
873 1 5.50434 1.01621 -6.50222 
2797 2 6.8285 -0.788542 -6.27099 
577 1 -7.1368 2.13364 -5.89064 
1200 1 -7.10998 1.29802 -6.16564 
218 1 -4.75875 1.12362 -6.71784 
3465 2 -5.913 1.50661 -6.28647 
3140 2 -5.78052 0.770254 -6.49558 
1056 1 -4.97238 1.47427 -5.9702 
1410 1 -4.79385 1.99304 -6.71004 
2677 1 -4.09702 0.982333 -6.04212 
3148 2 -3.58147 1.05548 -7.11593 
1523 1 -1.75506 0.269598 -6.91989 
337 1 -3.08633 1.75084 -5.99949 
1265 1 -2.49782 1.51541 -6.61744 
24 1 -3.9121 1.90966 -5.87418 
395 1 -1.05475 0.451845 -6.58201 
3311 2 0.147682 0.602052 -6.23818 
2928 2 0.235547 1.38612 -6.11159 
175 1 2.0394 0.820213 -5.82046 
1219 1 0.31898 2.57312 -7.11037 
1834 1 1.25326 1.42209 -6.40657 
3459 2 2.47237 1.37596 -6.76434 
3393 2 2.30256 2.07096 -6.52032 
2380 1 4.70882 1.1665 -6.13407 
1505 1 3.72126 1.03302 -7.09971 
2352 1 5.30624 0.685315 -5.6829 
1939 1 6.00577 0.558209 6.87893 
2092 1 5.46905 1.9681 -6.41976 
3135 2 6.44919 -0.0932458 -6.07379 
1331 1 6.33187 1.93571 -6.75639 
1455 1 6.44737 1.06799 -6.92351 
2736 2 -6.0811 2.22529 -6.03208 
1396 1 -7.07989 3.72704 -6.81244 
3238 2 -6.07281 2.9226 -6.36048 
488 1 -4.35775 2.56444 -5.78534 
3093 2 -3.73413 1.8296 -6.97337 
2783 2 -3.98255 2.51928 -6.977 
408 1 -3.66186 3.44877 -5.15222 
1356 1 -2.84543 2.44926 -6.56494 
2505 1 -1.95837 3.00223 -6.29758 
2452 1 -2.04286 2.18472 -6.48779 
1230 1 -1.10923 2.25293 -6.41108 
1817 1 -0.728149 1.46972 -6.72732 
323 1 0.0180314 3.43543 -6.87649 
3078 2 0.0899789 2.19971 -6.20096 
1644 1 1.28323 3.05164 -5.97103 
221 1 1.162 2.11266 -7.04057 
2000 1 1.31194 3.9384 -7.09772 
3417 2 2.24002 2.88963 -6.53087 
1625 1 3.94827 1.74742 -6.478 
1503 1 3.31949 1.74192 6.92144 
2765 2 4.42258 3.18229 -7.15215 
785 1 3.56062 2.89928 -6.41311 
613 1 3.09391 2.19086 -5.84057 
1176 1 5.35936 3.62911 -6.77515 
1027 1 5.5577 2.921 -6.44516 
2116 1 5.69676 2.41518 -7.0744 
2305 1 6.32705 3.08015 -6.63164 
3060 2 6.30088 1.48435 -5.69847 
2191 1 6.7839 4.69107 -6.41089 
1148 1 6.98138 5.69678 -6.34611 
240 1 -6.79126 4.49969 6.71514 
402 1 -5.22139 3.89229 -6.38856 
2436 1 -4.93022 2.80603 -6.49092 
762 1 -5.57833 4.85347 -6.6981 
2009 1 -6.50329 4.44208 -6.90962 
3408 2 -3.88962 3.34015 -6.78598 
3411 2 -4.14939 4.12742 -6.59765 
2304 1 -3.10289 2.63114 6.51234 
1499 1 -2.03625 3.94174 -6.01618 
1623 1 -1.56651 5.30852 -6.03861 
36 1 -2.83111 3.07243 -7.14145 
2208 1 -1.06389 3.15461 -6.3676 
2626 1 -1.46786 4.30787 -4.81828 
1224 1 -1.45411 4.48531 -5.8374 
2322 1 -0.852468 4.01201 -6.54418 
894 1 -0.040501 4.40054 -6.83579 
1308 1 -0.199866 5.12883 -6.79907 
867 1 0.79073 3.63063 -6.2363 
3466 2 1.86869 4.03421 -6.15794 
563 1 0.51494 5.01898 -6.00891 
3478 2 2.30948 3.566 -6.59235 
1689 1 3.08981 4.20574 -6.87269 
3215 2 4.26298 3.90578 -6.8519 
3551 2 4.07329 4.64546 -6.64524 
565 1 4.17652 3.45493 -5.7776 
2025 1 4.95788 4.01287 -5.94933 
1865 1 4.90931 3.0876 -5.85863 
889 1 6.17508 3.94145 -6.58313 
1697 1 6.60944 4.74739 -5.63972 
131 1 6.85846 3.9088 -5.82736 
2357 1 -6.38693 5.28782 -6.66397 
1959 1 -7.11247 5.12983 6.23436 
1718 1 -5.41784 5.95641 -6.85209 
691 1 -5.42134 5.33531 -5.2334 
3471 2 -4.37228 4.87768 -6.49062 
989 1 -3.09968 5.04611 -6.25097 
870 1 -2.97982 4.20812 -6.69285 
3306 2 -2.31721 5.84921 -6.78691 
3098 2 -2.14747 5.09517 -7.11786 
849 1 -1.24333 6.08622 -6.22204 
1394 1 -1.23608 6.59203 -6.92342 
798 1 -1.22749 5.57119 -7.1568 
1567 1 -0.312888 5.87713 -6.14222 
30 1 0.527162 4.74018 -4.65139 
3138 2 1.66838 4.71701 -6.35409 
641 1 0.681533 5.72367 -6.70363 
2494 1 0.859086 6.31698 6.82723 
2831 2 1.5469 5.27775 -5.80766 
23 1 3.14117 4.71965 -6.02176 
1789 1 2.00044 5.10113 7.09011 
2379 1 1.47544 5.85032 -6.95105 
3223 2 3.95904 5.46054 -6.67508 
865 1 5.01666 4.95471 -6.00673 
1390 1 4.55627 5.91098 -5.64028 
2594 1 5.04027 5.39753 -6.94584 
1263 1 6.18409 5.43169 -5.96309 
1778 1 5.9199 4.8147 -6.4205 
949 1 5.26882 4.47882 -6.85811 
1871 1 7.19783 5.0656 -6.99092 
2377 1 5.30934 5.79015 -6.27713 
1879 1 -6.20233 6.23022 -6.47544 
1599 1 -6.17477 -7.1773 -6.27767 
2662 1 -5.71427 5.70454 -5.94207 
3150 2 -4.79402 6.32422 -6.02427 
3477 2 -4.85859 -7.17635 -6.05809 
2574 1 -5.67971 6.87152 -6.80392 
3463 2 -4.3972 5.57488 -6.13504 
2058 1 -3.32172 5.99526 -6.01878 
2334 1 -3.59703 6.53146 -7.05712 
2832 2 -2.60219 -6.99705 -6.68903 
2839 2 -2.45855 6.58673 -6.62011 
1905 1 0.153893 7.13456 -6.02899 
197 1 -1.76789 6.82816 -5.83063 
1763 1 -0.580657 6.79141 -6.14449 
1941 1 -1.64643 6.66333 6.83374 
2564 1 0.445712 5.36498 -5.27709 
40 1 0.62138 -6.99599 -6.71846 
2038 1 0.428256 6.30744 -5.72372 
2600 1 1.46014 6.80024 -6.7103 
295 1 2.35513 6.7353 -6.87757 
2462 1 2.67827 5.98227 -6.00767 
2172 1 2.45664 5.95742 -6.87161 
2790 2 3.65083 6.15098 -6.34959 
3569 2 3.66204 6.94705 -6.2975 
115 1 4.93608 6.22793 -6.95153 
2136 1 4.87582 6.54959 -6.11908 
2787 2 5.6516 -7.02195 -6.82732 
3539 2 6.01204 6.57609 -6.98362 
1490 1 -6.9326 6.55018 -6.64685 
2521 1 -6.35194 -6.21856 -6.02648 
2828 2 -6.9721 -6.68107 -5.11207 
1060 1 -5.82098 6.70343 -5.73812 
803 1 -5.92132 -6.6772 -5.36746 
1733 1 -5.30884 -6.64794 -4.70446 
3520 2 -4.95496 -6.42419 -5.78666 
2200 1 -4.28042 -6.77272 -5.01569 
897 1 -3.66967 -6.12053 -5.36715 
2332 1 -4.4722 -5.81375 -4.68125 
1470 1 -2.33846 -6.35407 -4.39061 
658 1 -3.91363 6.85598 -5.4086 
995 1 -1.98011 -6.6424 -5.83189 
3018 2 -1.10215 -6.88569 -5.15274 
1652 1 -1.37327 -7.0107 -6.38748 
2491 1 -0.557362 -6.6598 -5.96323 
1088 1 0.598696 6.56919 -6.63143 
687 1 -0.214041 -6.16088 -5.19164 
204 1 -0.0331901 -7.10849 -5.23772 
3128 2 1.00916 -6.65208 -5.52317 
2315 1 1.69663 -6.84482 -4.48624 
579 1 2.3159 -6.32889 -5.68705 
1175 1 2.66735 -6.35656 -4.95755 
2145 1 2.31918 -7.15742 -6.14918 
2712 1 1.737 -6.10085 -4.79325 
795 1 4.43405 6.98052 -5.3985 
2370 1 4.17973 -6.33778 -5.3658 
2479 1 5.10968 -6.27119 -5.52894 
10 1 5.47741 7.12213 -5.67141 
1616 1 4.99582 -5.34436 -5.4337 
1526 1 6.03864 -6.08097 -4.7588 
1318 1 6.48003 -6.91959 -6.05341 
3010 2 6.93994 -6.00439 -5.19635 
2269 1 -6.28071 -5.63456 -5.24823 
1788 1 -6.15178 -4.25856 -6.32275 
3416 2 -5.11873 -5.67425 -5.68846 
2912 2 -5.48378 -4.9735 -5.48238 
1671 1 -4.03684 -5.74431 -6.05359 
2612 1 -3.11765 -5.48098 -5.26911 
2388 1 -4.07126 -5.27428 -5.18832 
138 1 -4.81973 -5.00939 -4.46618 
1665 1 -2.60279 -6.07745 -5.19389 
20 1 -1.40264 -6.19073 -6.40283 
3594 2 -1.32809 -6.16119 -4.99367 
448 1 -0.904378 -5.54202 -5.92304 
1235 1 -1.86327 -5.63879 -5.91946 
527 1 -0.0997666 -4.48658 -4.40971 
3068 2 0.91466 -5.11348 -5.23844 
2826 2 0.811177 -5.99087 -5.36375 
1810 1 1.15867 -6.04914 -4.14667 
1382 1 1.65626 -5.2117 -4.38815 
1160 1 2.6815 -5.4535 -4.85005 
2933 2 3.08353 -4.4624 -5.61346 
224 1 3.54638 -5.98213 -4.68033 
879 1 3.14805 -4.8257 -4.33146 
440 1 4.19638 -5.52296 -5.39467 
628 1 4.52706 -4.63605 -5.39522 
281 1 3.77494 -4.98789 -4.92633 
274 1 5.49997 -4.40506 -5.35956 
1320 1 5.68482 -4.09752 -4.33888 
329 1 5.77786 -5.24826 -4.799 
1830 1 5.89515 -5.34225 -5.80932 
3080 2 6.80601 -5.1112 -5.08122 
1493 1 6.85506 -3.10554 -5.57626 
1481 1 -6.65964 -3.92675 -5.06213 
3325 2 -5.60244 -4.13226 -5.40978 
2737 2 -5.4854 -3.33787 -5.41967 
2248 1 -3.61486 -4.46212 -5.10524 
1001 1 -4.45524 -3.95897 -5.49445 
172 1 -3.63469 -3.58637 -4.80662 
715 1 -4.58905 -4.22724 -4.64489 
26 1 -2.21456 -5.02516 -5.38452 
1979 1 -3.01272 -3.09833 -4.40793 
842 1 -1.31975 -4.69726 -5.87557 
1840 1 -2.17599 -4.24557 -5.78091 
2768 2 0.81163 -4.31114 -5.10384 
851 1 -1.21242 -3.88832 -5.67285 
685 1 -0.124404 -4.04413 -5.87169 
3227 2 0.643899 -3.60249 -5.00882 
984 1 -0.513749 -3.92181 -4.94991 
2048 1 1.78766 -4.64461 -5.71578 
250 1 1.79702 -4.15777 -5.04418 
3249 2 2.75285 -3.80112 -5.85027 
1073 1 2.32616 -4.67845 -4.64217 
1946 1 2.626 -3.68731 -4.73132 
1075 1 4.3615 -3.46138 -5.05798 
1653 1 3.86013 -4.02303 -4.90818 
593 1 3.47308 -3.95773 -4.17732 
2348 1 5.10957 -3.83685 -4.98228 
2530 1 5.91847 -3.6651 -5.55106 
802 1 6.54567 -3.78497 -5.9896 
659 1 6.24893 -4.58896 -6.19143 
3173 2 6.67037 -4.28071 -4.97102 
2858 2 6.73287 -3.59626 -4.59005 
639 1 -6.631 -3.2309 -5.46694 
2023 1 -6.57293 -3.38535 -4.38295 
2890 2 -5.51619 -2.71593 -4.97869 
1872 1 -6.39276 -2.25216 -5.83443 
1882 1 -6.99183 -1.84271 -4.31293 
582 1 -4.28304 -4.81034 -5.86716 
2706 1 -4.40908 -3.15172 -5.42439 
2974 2 -5.88374 -2.0653 -4.84555 
56 1 -4.08695 -2.70902 -4.66166 
1087 1 -4.81142 -1.85697 -5.19203 
3061 2 -3.49787 -2.49985 -5.53161 
2674 1 -3.23494 -2.26409 -4.48727 
1433 1 -2.71193 -3.71788 -5.18314 
1611 1 -2.39592 -2.7856 -5.01396 
1643 1 -1.7083 -2.99774 -5.43789 
1864 1 -0.478921 -2.13059 -5.78514 
1984 1 -0.33163 -3.16732 -5.92219 
2601 1 -1.46203 -2.21793 -5.22295 
484 1 0.239304 -2.52605 -6.27917 
3430 2 0.428886 -2.74661 -5.10851 
2599 1 1.49846 -3.50713 -5.58752 
84 1 1.5811 -2.73728 -4.91943 
3014 2 2.63404 -3.01458 -5.68174 
2830 2 2.40844 -2.32928 -5.40411 
85 1 3.87478 -2.49137 -5.26361 
1472 1 4.64786 -2.51395 -4.83351 
190 1 5.87201 -2.77652 -5.46943 
346 1 -6.87545 -2.47034 -4.97347 
2993 2 -6.12236 -1.27415 -4.65355 
3267 2 -6.02192 -0.439999 -4.5614 
2578 1 -4.82278 -1.14695 -5.59263 
1835 1 -4.92277 -0.66617 -4.77752 
2302 1 -4.4858 -0.366794 -4.11205 
3041 2 -3.67711 -1.76423 -5.47873 
2869 2 -3.87578 -0.899832 -5.36773 
1815 1 -2.36047 -1.92466 -5.77164 
1890 1 -1.64947 -1.25073 -4.98949 
1971 1 -3.76399 -0.869159 -4.05863 
1484 1 -0.681081 -1.497 -5.21176 
855 1 -0.589169 -0.79468 -5.21828 
1380 1 0.210838 -0.787085 -5.57901 
1953 1 1.31826 -2.43127 -5.884 
3354 2 0.254035 -1.96095 -4.79053 
1738 1 1.83403 -3.02137 -6.45977 
1940 1 1.48231 -1.59128 -4.65655 
2182 1 1.2214 -2.30951 -4.15844 
3356 2 2.63111 -1.54217 -5.33065 
3557 2 2.3092 -0.947248 -4.91282 
1695 1 3.76793 -1.20468 -6.37338 
840 1 3.49727 -2.1087 -4.63997 
2995 2 4.55927 -0.807776 -5.53764 
388 1 3.65667 -1.35842 -5.47019 
2575 1 3.28217 -0.419234 -5.24791 
1466 1 5.37099 -2.2228 -5.05726 
1548 1 5.2299 -1.58628 -4.47757 
1364 1 5.51063 -0.916875 -4.84545 
806 1 -6.72359 -1.46041 -5.56794 
153 1 5.58579 -0.758623 -5.90755 
1145 1 7.02022 -1.5713 -5.1003 
1335 1 -6.49418 -0.561213 -5.72267 
698 1 -7.09095 -0.355681 -5.14516 
3186 2 -6.43115 0.190709 -4.15928 
1833 1 -4.71003 0.413391 -6.11963 
2523 1 -4.63159 0.512386 -3.94121 
1572 1 -5.16812 0.252599 -4.70095 
2844 2 -3.85372 -0.1455 -5.05045 
3543 2 -4.0637 0.645013 -4.9401 
1581 1 -2.55902 -1.56796 -5.00975 
1790 1 -2.76624 0.0875886 -5.04272 
2796 2 -2.0161 0.83819 -5.47012 
1457 1 -2.655 -0.860125 -5.77214 
2030 1 -2.46005 -0.75504 -4.83108 
2395 1 -1.20841 -0.306716 -5.11632 
28 1 -1.0074 0.596085 -4.99265 
2037 1 -0.330064 0.00548113 -5.33776 
75 1 0.749934 -0.00335196 -4.93455 
3383 2 2.01021 0.481292 -4.73197 
859 1 3.09243 0.533496 -4.94869 
3449 2 2.08447 -0.22747 -4.76778 
2336 1 2.8474 0.765462 -5.73698 
3317 2 4.24205 -0.0459896 -5.48681 
2848 2 4.17278 0.678425 -5.2491 
34 1 5.60767 -0.0230651 -5.2349 
941 1 6.41353 -0.969679 -5.13853 
1402 1 6.11561 0.626834 -4.67668 
2711 1 -6.84199 1.2642 -5.35502 
2560 1 -6.00972 0.796594 -5.24008 
3263 2 -6.50767 1.04381 -4.19703 
877 1 -5.14783 0.679568 -5.47181 
1551 1 -5.33474 1.07392 -4.40618 
3256 2 -4.17924 1.41179 -4.9497 
3144 2 -4.33886 2.07541 -4.60565 
1268 1 -2.9497 0.969036 -5.00859 
2939 2 -2.04561 1.6191 -5.32911 
2241 1 -2.25338 0.415216 -4.3993 
2708 1 -0.870089 0.498948 -5.79539 
1932 1 -1.65569 1.17685 -6.60043 
1110 1 -1.58105 0.982325 -4.31727 
42 1 0.241081 0.836637 -5.14004 
549 1 1.0553 1.00931 -5.51761 
741 1 -1.05049 1.49741 -5.83774 
2558 1 1.16546 2.27874 -6.23718 
2231 1 1.17429 0.172756 -5.69426 
1501 1 2.98456 1.28822 -4.49906 
178 1 3.36819 1.35903 -6.02157 
2276 1 1.88091 1.75162 -5.57636 
3364 2 3.89199 1.44753 -5.18447 
234 1 5.3145 1.50281 -5.26883 
140 1 4.92027 2.03423 -5.79505 
2327 1 5.98848 1.49301 -4.69533 
1888 1 6.88694 1.35105 -4.60949 
3038 2 6.3715 0.652514 -5.89008 
2297 1 7.03972 0.624331 -4.95741 
13 1 -6.2718 1.88035 -5.13247 
1760 1 -6.61549 2.95365 -4.99898 
789 1 -5.33469 1.53735 -5.13127 
2278 1 -5.47768 2.02542 -4.34419 
1584 1 -5.20115 2.37336 -5.4851 
1991 1 -3.89787 4.3565 -5.40099 
902 1 -3.30991 2.99387 -6.02932 
2861 2 -4.6524 2.8086 -4.66461 
1454 1 -3.48436 2.63821 -5.01911 
2846 2 -2.18296 2.37437 -5.34331 
3117 2 -2.55804 3.09369 -5.19531 
474 1 -1.09884 2.61899 -5.65142 
1880 1 -1.01006 1.68868 -4.87137 
1132 1 -0.597782 2.61028 -4.91889 
3444 2 -0.0168563 2.9212 -5.92917 
46 1 -0.381521 1.31059 -5.14259 
171 1 1.72206 2.71638 -5.47603 
2442 1 0.314454 2.86225 -4.34649 
2647 1 0.939752 1.94926 -5.44203 
2707 1 2.56601 2.50285 -5.23798 
2271 1 2.98878 3.2758 -5.67302 
850 1 2.66764 1.67414 -5.27169 
970 1 2.74199 2.95638 -4.44764 
3388 2 4.1023 2.18726 -5.12671 
3433 2 3.81423 2.80253 -5.0566 
908 1 4.32118 2.51479 -6.26085 
1515 1 5.29951 2.25774 -4.88312 
1169 1 7.16405 3.15058 -5.86112 
3414 2 6.29451 2.33186 -5.72344 
2440 1 -7.11247 2.24537 -4.97838 
521 1 6.61037 3.18327 -4.56306 
3045 2 -6.20232 3.62064 -6.03668 
822 1 -5.7082 3.54668 -5.0278 
3147 2 -6.51436 4.45248 -5.85441 
732 1 -4.33314 3.52174 -5.63781 
92 1 -5.77632 2.71465 -4.97686 
2690 1 -5.08705 3.1405 -5.50515 
2495 1 -4.80934 4.17361 -5.45693 
1630 1 -3.75851 4.43885 -3.83808 
59 1 -2.61525 3.45898 -6.24468 
2945 2 -2.51911 3.86923 -5.01083 
2977 2 -2.74127 4.48441 -4.66957 
2563 1 -1.35414 3.53457 -5.5032 
1521 1 -0.867555 3.81542 -4.61213 
561 1 -0.240536 3.36782 -4.76558 
2813 2 -0.285315 3.60747 -5.70693 
3378 2 -0.242738 4.3241 -5.66683 
1614 1 2.39932 3.33649 -5.13929 
441 1 0.655788 3.82636 -4.81855 
2630 1 0.873297 4.22389 -5.48398 
1375 1 0.822967 2.74902 -5.09434 
482 1 1.51795 3.51499 -5.22558 
1997 1 2.09225 4.93948 -4.796 
1709 1 2.40234 4.10406 -4.65482 
268 1 2.7904 4.21094 -5.53478 
2894 2 3.62704 3.52594 -4.79315 
3013 2 3.4864 4.23754 -4.4291 
2703 1 4.49813 4.13752 -5.30201 
81 1 4.87604 3.09565 -4.92455 
3298 2 5.99259 3.02815 -5.47085 
2917 2 5.83783 3.80653 -5.53162 
496 1 5.73099 3.22208 -4.23674 
2010 1 7.01004 4.53958 -4.64787 
2072 1 7.14017 3.78127 -5.07545 
3330 2 -6.54233 5.18127 -5.54222 
2376 1 -5.37888 4.84059 -5.9384 
297 1 -5.54846 4.40277 -5.15466 
2469 1 -4.52526 4.94335 -5.23388 
833 1 -6.13071 5.47726 -4.4908 
2687 1 -4.57879 5.90672 -4.95079 
1894 1 -3.27768 4.01266 -5.91041 
285 1 -3.86421 5.06731 -4.59467 
1030 1 -2.32869 4.82726 -5.92843 
3458 2 -2.65075 5.18711 -4.62459 
2018 1 -2.52039 5.80322 -5.66959 
353 1 -0.937027 4.93449 -6.50881 
1881 1 -1.69709 5.02233 -5.16225 
3392 2 -0.553821 5.09299 -5.35401 
597 1 -0.212411 4.98556 -4.31647 
1713 1 1.409 4.56636 -4.9287 
2714 1 1.80616 6.558 -4.47818 
2429 1 1.12442 5.3479 -4.70293 
371 1 3.47509 3.75553 -6.11979 
862 1 2.54609 5.17217 -5.51958 
245 1 1.96636 5.59114 -4.19278 
1066 1 3.75221 4.50764 -5.53722 
1422 1 4.33924 5.16238 -5.40154 
614 1 3.27417 5.63447 -5.45225 
2814 2 3.25533 5.02455 -4.47546 
2927 2 5.77118 4.38698 -5.07388 
585 1 6.39454 6.57354 -4.73747 
404 1 6.65414 5.78055 -5.21345 
3487 2 -6.92596 6.86156 -5.36961 
2747 2 -6.7312 6.00768 -5.4841 
2466 1 -5.47478 7.03333 -4.96306 
1255 1 -5.62004 6.07776 -4.96411 
2275 1 -3.50287 5.12357 -5.43281 
1232 1 -3.66959 5.98408 -5.15563 
1598 1 -3.89921 5.78666 -4.20043 
977 1 -2.8705 6.79055 -5.62405 
2865 2 -2.82126 5.92865 -4.59161 
356 1 -2.27408 -6.95464 -5.10904 
1725 1 -1.67925 5.95149 -5.45719 
1227 1 -3.21486 -6.76051 -5.48843 
3455 2 -1.01756 6.70762 -4.98239 
3207 2 -0.67367 6.00487 -5.25945 
1639 1 0.121995 5.87154 -4.46062 
27 1 0.329664 6.64423 -4.83598 
2978 2 1.41991 7.04568 -5.63962 
2899 2 1.58636 6.12773 -5.73236 
1196 1 1.18338 6.15477 -4.55421 
1019 1 2.69077 6.69092 -5.43573 
1051 1 2.33994 5.94828 -4.94782 
1358 1 3.4317 -6.98451 -5.09319 
451 1 4.13476 5.89681 -4.90951 
665 1 3.50895 6.51645 -5.11747 
1927 1 5.8892 6.33829 -5.73959 
3257 2 5.55138 5.27573 -5.12936 
2971 2 5.37603 6.01766 -4.84984 
686 1 6.60345 6.56734 -6.09613 
462 1 6.22958 -6.98507 -5.02936 
2029 1 -6.13569 -6.34405 -4.5428 
1667 1 -6.59807 -6.66301 -3.92946 
1312 1 -5.37036 -5.82856 -4.58992 
3545 2 -5.5589 -6.68764 -3.51383 
2849 2 -5.4084 7.02199 -3.76432 
1994 1 -4.69862 6.77028 -4.81202 
361 1 -4.5 -6.57925 -4.16559 
2835 2 -3.38302 -6.37104 -4.30264 
1730 1 -4.13093 -7.1856 -3.2597 
1344 1 -1.99811 7.13321 -4.1314 
3265 2 -3.30849 -7.17033 -4.37827 
1609 1 -2.4366 -6.62819 -3.59381 
2326 1 -1.25042 -6.86653 -3.91713 
2569 1 -1.67517 -6.19252 -3.95169 
1945 1 -0.359201 -5.95977 -4.16088 
945 1 -0.24453 -6.80155 -4.25341 
133 1 1.08009 7.04892 -4.71856 
229 1 1.5864 -6.43908 -3.66605 
1629 1 2.13783 -7.12005 -2.96703 
1300 1 0.457416 -6.46402 -4.52178 
3303 2 2.70913 -6.48318 -4.03314 
2918 2 2.45634 -5.76632 -3.82221 
1384 1 3.91946 -6.78297 -4.45975 
317 1 4.76945 -6.77881 -3.42632 
1511 1 4.06656 -7.18145 -3.78911 
2204 1 3.98359 6.01531 -3.54913 
2926 2 5.23142 6.88951 -4.64912 
3290 2 5.101 -6.6193 -4.48394 
189 1 4.79161 6.74054 -3.57018 
2552 1 5.90618 -6.28745 -3.85512 
2464 1 6.62437 -6.9593 -4.27596 
1000 1 6.79005 -6.1857 -4.06426 
1013 1 -6.76413 -5.09495 -5.71184 
964 1 -6.62949 -5.55054 -4.4355 
2288 1 7.11542 -5.45885 -3.72352 
3469 2 -5.79796 -5.73964 -3.51728 
1144 1 -5.69851 -4.91118 -4.38809 
2496 1 -4.79966 -5.74371 -3.78832 
3413 2 -3.49566 -5.58033 -4.27288 
3562 2 -3.77427 -4.85279 -4.03125 
458 1 -2.74515 -4.56988 -4.8747 
1691 1 -2.41796 -5.18716 -4.46591 
2033 1 -2.67761 -4.64212 -3.58222 
3322 2 -1.24062 -5.32011 -4.65897 
534 1 -0.917249 -5.83354 -3.59779 
37 1 -1.8929 -5.08525 -3.6148 
1468 1 0.462335 -5.63154 -4.20966 
1836 1 -0.529623 -5.11085 -3.92014 
2656 1 1.42572 -5.67941 -3.37475 
3379 2 2.46273 -5.14514 -3.46908 
3230 2 2.25975 -4.42607 -3.52786 
168 1 3.56839 -5.38656 -4.01746 
1062 1 3.99926 -6.13384 -3.64965 
2695 1 5.39751 -5.54655 -3.61429 
1034 1 5.72433 -4.82711 -3.88344 
2825 2 4.70084 -5.67046 -4.2664 
3340 2 4.67738 -4.93815 -4.45373 
2365 1 5.53575 -4.36814 -3.24717 
2721 1 6.24581 -5.47301 -3.89648 
2571 1 6.5516 -4.51498 -3.8312 
517 1 -6.97073 -4.65654 -3.88276 
2350 1 6.85696 -2.86759 -3.51328 
844 1 -7.04974 -3.70755 -3.81362 
1627 1 -4.69419 -3.32879 -4.50331 
1182 1 -6.62273 -4.63262 -4.62745 
1673 1 -5.82483 -3.80285 -4.37085 
647 1 -5.14412 -3.92514 -3.7727 
1791 1 -5.43695 -4.16977 -2.3091 
3536 2 -3.89983 -3.98227 -3.74963 
104 1 -2.88251 -4.02424 -4.26359 
401 1 -2.58488 -3.47697 -3.67351 
3285 2 -1.72372 -3.73838 -4.65225 
3480 2 -1.4072 -4.46482 -4.59432 
1028 1 -0.603187 -4.01624 -4.00408 
1431 1 -0.541459 -3.164 -4.33291 
781 1 0.649526 -4.90484 -4.17307 
1998 1 0.23002 -3.74044 -3.90377 
2102 1 1.44611 -4.26736 -4.17807 
2067 1 1.42335 -4.79521 -3.23926 
797 1 3.30783 -4.27097 -3.36297 
3320 2 2.23888 -3.73653 -3.51161 
3244 2 4.53304 -4.41937 -4.03343 
2857 2 4.53948 -3.70657 -3.79514 
423 1 5.75685 -3.56221 -3.49633 
148 1 5.476 -3.21365 -4.461 
1807 1 5.2209 -2.84084 -3.20254 
431 1 5.95529 -2.61806 -3.47261 
2109 1 6.68657 -3.78705 -3.33806 
2215 1 -6.69653 -2.53993 -3.93223 
2157 1 6.80749 -1.26396 -2.77072 
1999 1 -5.44191 -3.01341 -3.99192 
1542 1 -4.78755 -2.33697 -4.29981 
90 1 -5.48807 -2.21477 -3.75265 
3083 2 -4.12374 -2.48636 -3.3676 
3376 2 -4.11811 -3.21744 -3.60434 
2524 1 -2.06333 -4.10855 -3.52122 
481 1 -2.93331 -2.46155 -3.72599 
128 1 -0.889497 -2.33953 -4.65823 
2916 2 -1.69207 -3.12582 -4.11001 
3198 2 -2.01985 -2.32521 -4.25294 
954 1 -0.881903 -2.98371 -5.23714 
635 1 -0.702103 -2.12853 -3.86475 
1961 1 1.08845 -4.00642 -3.40826 
535 1 0.134381 -2.72641 -3.74183 
1237 1 0.981926 -3.16963 -3.88528 
2411 1 1.73208 -3.39613 -4.4126 
1239 1 3.10395 -3.25822 -3.69024 
1119 1 2.07049 -2.16738 -4.25928 
2545 1 2.71697 -2.81239 -4.39618 
506 1 3.00838 -2.53947 -3.65687 
3353 2 4.19927 -2.95752 -3.96684 
541 1 3.40057 -3.15468 -4.85167 
3134 2 4.10923 -2.11861 -3.73271 
2225 1 5.29189 -2.53772 -4.04013 
1664 1 5.32614 -1.97289 -3.37645 
1449 1 7.06614 -1.84452 -3.43529 
3116 2 6.50233 -2.86023 -4.47324 
1031 1 6.39691 -2.06987 -2.99683 
960 1 -7.16683 -0.820182 -4.29951 
2351 1 -5.97066 -1.65695 -3.43893 
319 1 -6.65206 -1.30546 -3.60842 
49 1 7.02708 -0.748578 -3.33116 
2296 1 -5.37345 -1.41471 -3.99629 
443 1 -5.32972 -0.378561 -3.77958 
1428 1 -3.84364 -1.69693 -4.37483 
923 1 -4.62135 -1.33678 -4.55543 
1064 1 -3.20574 -1.5399 -3.6459 
572 1 -3.16289 -1.2098 -4.54619 
2766 2 -2.12022 -1.56374 -3.94486 
2748 2 -2.05537 -0.873306 -3.71438 
1743 1 -0.343173 -0.638656 -3.02953 
2426 1 -1.05614 -1.47106 -4.34789 
2020 1 -0.148668 -1.45918 -3.54571 
3585 2 0.245714 -1.10822 -4.51649 
971 1 1.2461 -1.35893 -3.86422 
692 1 1.33433 -0.408935 -4.13947 
188 1 2.13355 -0.12139 -3.6485 
2084 1 2.93661 -1.4267 -4.24153 
1531 1 2.06751 -1.28944 -3.94708 
2914 2 3.78016 -1.31177 -3.52539 
126 1 4.34739 -1.65891 -4.76444 
3483 2 3.76752 -0.662504 -3.18692 
2211 1 4.87257 -1.11808 -3.82909 
1307 1 4.57219 0.0657602 -3.80535 
2856 2 6.25727 -1.96342 -4.33171 
2902 2 6.2055 -1.18173 -3.98681 
2267 1 -6.52875 -0.384516 -3.32863 
385 1 -5.82012 0.411637 -2.81207 
1446 1 -3.82763 0.367285 -3.69865 
2132 1 -3.33851 -0.493306 -3.40091 
400 1 -3.14682 -0.228298 -4.24998 
1651 1 -3.13967 0.114926 -2.47012 
1257 1 -1.81564 -0.235149 -4.5563 
2789 2 -2.34128 -0.165019 -3.4826 
871 1 -1.21193 -0.630146 -4.35418 
2108 1 -1.10684 0.234802 -3.14039 
892 1 -1.24579 0.200163 -4.03641 
3500 2 -0.192781 -0.366516 -4.17694 
3555 2 -0.241744 0.497995 -4.10409 
2381 1 1.18296 -0.825054 -5.02504 
1432 1 0.957647 0.462838 -4.21768 
2489 1 1.54278 0.663317 -3.70368 
2406 1 0.663166 1.28564 -4.66326 
2150 1 3.17058 -0.40674 -4.34746 
1698 1 3.69266 -1.04419 -4.55941 
31 1 2.87317 0.449714 -3.90852 
1299 1 3.82479 0.281537 -4.33345 
3305 2 3.80239 0.13444 -2.94697 
296 1 5.0299 0.0473643 -4.62376 
3209 2 5.77816 0.318681 -3.65486 
985 1 4.46588 -0.616823 -4.47216 
817 1 6.92433 0.0885514 -4.097 
2819 2 5.86576 -0.37489 -3.83688 
1720 1 6.92222 0.131567 -3.28345 
1575 1 6.45745 -0.171324 -4.87954 
654 1 -6.74158 0.4986 -3.18168 
3260 2 -6.37337 1.84678 -4.035 
1343 1 -5.50622 0.469387 -3.54196 
2061 1 -4.7374 1.41347 -3.79142 
121 1 -5.89843 2.20109 -3.11143 
2529 1 -3.11194 0.694627 -4.26002 
827 1 -3.40961 1.55146 -4.22423 
2718 1 -3.88888 1.25506 -3.57831 
978 1 -2.53434 1.59666 -4.41939 
3490 2 -2.50902 0.58701 -3.30826 
3588 2 -2.7144 1.47761 -3.27429 
2663 1 -1.4774 0.915657 -3.41295 
2950 2 -0.351832 1.36457 -3.90913 
1374 1 0.11073 2.06074 -5.01268 
3443 2 1.79651 1.17202 -4.66461 
2047 1 2.56071 0.895807 -2.6193 
1700 1 1.03745 1.53625 -3.79597 
1195 1 2.7862 1.62532 -3.67588 
1185 1 3.83745 1.19713 -4.04703 
1703 1 4.54892 0.884245 -4.16637 
251 1 4.50567 1.82222 -3.74529 
3369 2 5.55221 1.09245 -3.76393 
1151 1 5.18051 0.932392 -4.70974 
2976 2 5.66445 1.89463 -3.68813 
550 1 6.72214 0.99767 -3.83679 
3033 2 -6.50141 2.53857 -3.92455 
2751 2 -6.92136 3.27065 -3.86458 
111 1 -5.69842 1.25471 -3.44776 
896 1 -5.6387 2.98853 -4.08733 
260 1 -4.79799 3.16248 -3.35839 
710 1 -5.13359 2.2177 -3.44513 
246 1 -3.79224 2.46715 -3.83611 
154 1 -3.50003 3.11576 -4.3308 
668 1 -3.15162 1.88938 -5.09818 
1316 1 -3.03719 2.37087 -4.23749 
683 1 -1.56139 2.26423 -4.31926 
1775 1 -1.32558 3.04483 -4.81291 
2860 2 -0.744796 2.88321 -3.68104 
1002 1 -1.77142 2.46374 -3.27684 
1768 1 0.664248 3.07555 -3.56743 
2013 1 0.622014 2.18316 -4.05822 
3196 2 -0.526192 2.13656 -3.86646 
3241 2 1.74234 2.00357 -4.46769 
3063 2 1.60407 2.68633 -4.30634 
1777 1 0.113939 1.48805 -2.74147 
620 1 2.59635 2.55764 -3.64384 
583 1 2.82584 2.11699 -4.53135 
530 1 2.76159 3.71242 -3.82667 
556 1 3.66067 2.24907 -4.03879 
779 1 4.68235 2.49091 -4.34287 
790 1 6.11588 2.46392 -4.54417 
2497 1 4.90079 1.66213 -4.39781 
523 1 6.80497 2.00728 -4.28468 
2778 2 5.4073 2.68474 -3.25538 
721 1 6.67839 1.93041 -3.43688 
1899 1 6.09338 1.76315 -2.72015 
491 1 -6.40843 3.93634 -4.81959 
3021 2 -7.02307 4.05039 -3.76379 