ITEM: TIMESTEP
37200
ITEM: NUMBER OF ATOMS
3594
ITEM: BOX BOUNDS pp pp pp
-7.2082007796529455e+00 7.2082007796529455e+00
-7.2082007796529455e+00 7.2082007796529455e+00
-7.2082007796529455e+00 7.2082007796529455e+00
ITEM: ATOMS id type x y z 
1345 1 -6.35557 -5.78522 -6.17122 
2582 1 -6.02581 -7.01809 -6.594 
1291 1 -6.84206 -6.52204 -6.35808 
3477 2 -4.96042 -6.9157 -5.77749 
1273 1 -5.88855 -6.30464 -6.74436 
3520 2 -5.08277 -6.09139 -5.69092 
1117 1 -4.73593 -6.55822 -6.77671 
2546 1 -4.13288 -5.80471 -6.77684 
959 1 -3.97735 -6.24862 -6.04147 
833 1 -3.95719 -7.08083 -6.57548 
2944 2 -2.94181 -6.5373 -6.50977 
3574 2 -3.01806 -5.72108 -6.40789 
2368 1 -0.6084 -6.48458 -5.87687 
245 1 -0.752329 7.17208 -6.2569 
1167 1 -1.44027 -6.72396 -6.5113 
3368 2 -0.585635 -6.42268 -7.14172 
1836 1 0.118461 -6.4487 -6.41841 
1634 1 0.992426 -6.78975 -7.07435 
1587 1 1.84861 -5.99081 -6.46769 
2627 1 1.72657 -6.86686 -6.64276 
3587 2 3.34819 -6.41794 -6.10438 
3569 2 3.69659 -7.13031 -6.46973 
2009 1 4.54156 -6.63331 -6.71016 
779 1 5.21042 -6.00601 -5.71248 
2787 2 5.7532 7.08743 -7.16299 
3208 2 5.52802 -6.46644 -6.8959 
1320 1 6.61643 -7.01709 -6.2162 
209 1 6.73774 -6.22426 -7.07349 
1263 1 -6.53869 -5.07942 -5.86469 
392 1 -5.8526 -5.23256 -6.67212 
1654 1 -5.25292 -5.82351 -7.00701 
1020 1 -4.84013 -5.12627 -6.62967 
2702 1 -3.95105 -4.80299 -7.0737 
2981 2 -3.28238 -5.00527 -6.05174 
2018 1 -2.09997 -5.04454 -6.42658 
1356 1 -1.95147 -5.71488 -6.89469 
3484 2 -0.891734 -4.88421 -6.72549 
3019 2 -0.815331 -5.60686 -7.16293 
1333 1 0.259533 -5.52411 -6.94945 
2537 1 0.597438 -4.89197 -6.4033 
2453 1 -0.0618169 -4.34092 -6.18552 
774 1 0.911111 -6.01041 -6.68743 
1837 1 1.70609 -5.11444 -6.32644 
1734 1 2.45644 -5.56564 -6.88582 
498 1 2.62746 -4.87172 -7.15339 
3442 2 3.4907 -5.60643 -6.09785 
329 1 2.24311 -4.25575 -6.89629 
2957 2 2.91003 -5.18 -6.02082 
1415 1 4.11581 -4.72737 -6.83249 
248 1 4.55375 -5.74179 -6.26193 
2415 1 3.5542 -5.25585 -7.07084 
2812 2 5.47871 -5.57614 -6.78447 
3212 2 5.34588 -4.82996 -6.52572 
1312 1 6.55492 -5.31367 -6.77244 
274 1 7.06912 -5.84641 -6.25053 
1597 1 7.14238 -4.591 -6.09484 
2500 1 6.39818 -4.94234 -5.9199 
2706 1 -6.18895 -4.32381 -6.33651 
2975 2 -6.96001 -4.11501 -7.15516 
3126 2 -7.09826 -3.26339 -6.81403 
2612 1 -6.24706 -3.18975 -6.22489 
2727 1 -6.76199 -3.9558 -5.81676 
1640 1 -5.16457 -4.30537 -6.64228 
2661 1 -4.81235 -3.52029 -6.33845 
572 1 -5.79252 -3.63983 -6.69382 
1477 1 -4.39572 -4.26891 -5.80202 
2516 1 -4.08072 -4.08496 -6.61021 
2381 1 -3.89852 -3.32463 -6.82643 
386 1 -2.19134 -4.0578 -6.33472 
3041 2 -3.34959 -3.31487 -5.80621 
3061 2 -3.27686 -4.16566 -5.93711 
484 1 -1.99479 -3.26388 -5.79302 
890 1 -2.51113 -4.71082 -7.14434 
2262 1 -3.01542 -4.04381 -6.94331 
2808 2 -1.18027 -4.09143 -6.5875 
3332 2 -0.985961 -3.27831 -6.53149 
658 1 0.0533975 -4.35085 7.10295 
1050 1 0.169525 -3.68007 -6.60343 
632 1 -0.349361 -3.58595 -5.57452 
2709 1 0.858198 -3.94079 -6.04314 
628 1 1.8702 -3.61745 -6.22525 
2256 1 3.30143 -4.37162 -6.96478 
1418 1 3.67436 -3.65233 -6.33895 
483 1 2.75862 -3.48837 -6.5866 
190 1 4.30834 -3.86852 -6.79761 
303 1 4.15016 -4.49726 -5.97047 
3266 2 5.24531 -4.00819 -6.30803 
2767 2 5.11195 -3.22912 -6.26158 
1373 1 6.1315 -2.81059 -6.51445 
2574 1 6.35783 -3.92413 -6.22834 
2437 1 6.27044 -4.50843 -6.9633 
2114 1 -6.10122 -3.06889 7.08896 
2353 1 -6.14741 -2.46914 -6.71682 
519 1 -6.48244 -1.56268 -7.06522 
1445 1 -5.47488 -2.89434 -6.28221 
1835 1 -4.43646 -2.74961 -6.48298 
1434 1 -4.18216 -1.94874 -6.87417 
2869 2 -3.43403 -2.66877 -5.92099 
37 1 -3.92681 -2.60751 6.98191 
743 1 -2.96603 -2.98894 -7.00094 
911 1 -2.35107 -2.547 -6.17776 
3234 2 -1.12317 -2.50113 -6.23784 
3105 2 -1.35934 -1.75914 -6.23137 
2263 1 -0.112093 -2.28624 -6.68079 
250 1 0.0860938 -2.89789 -6.0851 
2631 1 0.839794 -3.16265 -5.89508 
3347 2 1.14847 -3.16546 -7.01336 
2804 2 1.06897 -2.36413 -6.9498 
1859 1 2.1636 -2.81556 -6.39791 
2628 1 3.17846 -2.65876 -6.48418 
847 1 4.41143 -3.04767 -7.02288 
2645 1 3.97977 -2.71836 -6.54192 
1834 1 4.64107 -1.97451 -6.95779 
3550 2 4.90072 -2.43919 -5.96698 
2074 1 5.68992 -1.94167 -6.46694 
1981 1 5.37188 -2.45317 -7.16477 
3087 2 7.15733 -2.41463 -6.62754 
1987 1 6.24501 -2.87531 -5.62135 
90 1 -6.36262 -1.28041 -6.25932 
385 1 -6.4818 -0.662696 -5.80532 
2137 1 -6.33063 -1.35413 6.56161 
41 1 -5.76235 -1.87296 -6.06997 
3097 2 -5.40347 -0.927498 7.19218 
18 1 -4.74705 -1.31488 -6.17926 
3360 2 -5.37458 -1.72692 -7.20815 
1928 1 -3.47519 -1.38544 -6.80676 
174 1 -2.59718 -1.11584 -6.82155 
1800 1 -2.27198 -2.04743 -6.8323 
1474 1 -2.38451 -1.67509 -5.89738 
965 1 -3.22983 -2.1935 -6.82161 
3200 2 -1.51999 -1.06708 -6.09592 
1635 1 -2.00423 -1.03118 7.0404 
607 1 -0.139246 -1.48033 -6.35072 
3088 2 0.691386 -0.697226 -6.71417 
2326 1 -0.520164 -0.732706 -6.28432 
3151 2 0.780939 -1.67182 -6.83669 
2520 1 1.96107 -1.49505 -6.34394 
151 1 1.68163 -1.05185 -6.96288 
2390 1 1.6728 -0.262722 -6.02041 
388 1 2.76349 -1.75653 -6.15968 
296 1 2.37743 -0.707729 -6.16772 
859 1 2.13377 -2.05358 -6.90823 
2150 1 3.66355 -1.79869 -6.42547 
1648 1 3.56403 -0.837386 -6.63144 
1085 1 4.56562 -0.864068 -6.71917 
1362 1 5.34146 -1.32804 -6.6917 
2510 1 5.70861 -1.24251 -5.827 
2180 1 5.92016 -0.823303 -6.85904 
2840 2 6.88513 -1.78559 -6.57908 
2797 2 6.78746 -0.897983 -6.46039 
625 1 -6.70669 -0.613601 -7.0487 
1185 1 -6.86359 0.444615 -6.91885 
3007 2 -5.74194 0.479056 -6.88986 
817 1 -6.74041 0.0950997 -6.21534 
3127 2 -5.72589 -0.339892 -6.77457 
2601 1 -4.43399 -0.0868616 -6.95966 
1001 1 -4.53813 -0.475428 -6.09462 
1446 1 -3.63037 -0.492721 -6.20594 
433 1 -4.00249 0.452073 -6.25521 
343 1 -2.77832 0.940938 -6.63031 
900 1 -2.69944 -0.131011 -6.29214 
323 1 -1.5603 -0.315193 -6.96304 
28 1 -1.46231 0.68285 -6.93532 
2796 2 -1.79044 -0.32216 -5.88403 
994 1 -0.837951 0.921446 -6.03603 
1828 1 -0.753105 0.0486057 -6.65188 
3311 2 0.433384 -0.108879 -6.39104 
2928 2 0.248767 0.601303 -6.31835 
2600 1 1.53635 -0.201445 -6.78235 
2960 2 2.66793 0.178563 -7.0445 
3195 2 2.63237 -0.504434 -7.19894 
1034 1 3.52396 0.0705228 -6.3232 
1876 1 3.81207 0.894984 -6.69633 
1824 1 3.94022 -0.248897 7.0983 
478 1 5.30264 -0.209256 -6.91037 
2418 1 4.42019 0.0215799 -6.75839 
1698 1 6.03448 -0.0449105 7.09728 
2276 1 5.59236 0.637876 -6.96707 
3135 2 6.51176 -0.243973 -6.14246 
3038 2 6.33915 0.513446 -6.11379 
1331 1 -7.1376 1.85668 -6.37782 
115 1 -7.09717 0.971641 -6.23363 
2685 1 -7.12998 1.39432 -7.05035 
1138 1 -6.89871 2.22334 6.92931 
2699 1 -4.77657 0.698544 -6.0739 
3140 2 -5.97488 1.26223 -6.58318 
1335 1 -4.94213 1.57436 -6.27882 
1232 1 -4.88912 1.76694 -7.10893 
415 1 -4.71786 0.854712 -6.96362 
1233 1 -4.11318 1.39718 -6.16709 
3148 2 -3.83387 1.43392 -7.16567 
2275 1 -2.96237 1.84563 -6.4742 
1370 1 -1.84386 1.53601 -6.75999 
964 1 -2.34003 0.686756 7.2058 
1745 1 -0.962975 1.66655 -6.41997 
2081 1 -0.432958 1.56026 7.13886 
3078 2 0.186581 1.39326 -6.24642 
2523 1 -0.557974 0.63881 7.18459 
1057 1 1.33728 0.809582 -6.68412 
823 1 1.12693 1.33132 -5.67796 
583 1 1.25114 2.07389 -6.51594 
3459 2 2.29003 0.940298 -7.07264 
1176 1 3.17458 1.61798 -6.18379 
3393 2 2.26714 1.79155 -6.83013 
366 1 4.67353 0.932546 -6.5136 
312 1 3.38802 1.50439 -7.11449 
1883 1 5.38067 1.58699 -6.7384 
2151 1 6.47724 1.61468 -6.99068 
3060 2 6.22289 1.25724 -5.92391 
3465 2 -6.11504 2.19547 -6.46219 
2736 2 -6.11573 2.92646 -6.40011 
2386 1 -7.04829 3.0452 -7.09815 
1476 1 -5.28416 2.81903 7.16318 
822 1 -4.93564 2.32601 -6.49919 
1238 1 -4.27168 2.26317 -6.0488 
3093 2 -3.89139 2.22244 -7.16359 
2783 2 -4.02769 2.95371 -6.85137 
395 1 -2.89826 2.56422 7.10491 
1517 1 -2.32662 3.58527 -6.52727 
1772 1 -2.99932 2.86624 -6.43441 
883 1 -2.04284 2.67321 -6.74397 
920 1 -1.24313 3.22674 -6.76933 
1255 1 -1.34924 2.42691 -6.09727 
1932 1 -1.04577 2.23895 -6.92885 
3444 2 0.0184034 2.2888 -6.06632 
2813 2 -0.342725 2.97615 -6.03653 
1368 1 0.902041 2.84974 -6.24354 
3417 2 2.18803 2.56581 -6.94976 
2314 1 3.01944 3.25589 -7.0202 
377 1 3.55393 3.29066 -6.24943 
2068 1 4.09325 1.67553 -6.42197 
2483 1 3.34509 2.43431 -7.03742 
1068 1 3.97606 2.6248 -6.31267 
805 1 5.12312 2.8424 -6.48969 
194 1 4.81699 2.02994 -6.25619 
339 1 6.64956 2.46145 -7.2017 
284 1 6.03565 3.09713 -6.72755 
2317 1 7.02756 2.69789 -6.24697 
3238 2 -6.3628 3.68668 -6.25677 
3045 2 -6.41863 4.51271 -6.08511 
536 1 -5.21582 3.42988 -6.64707 
317 1 -5.52442 4.75239 -6.86517 
3408 2 -4.1993 3.71222 -6.82438 
3411 2 -4.34354 4.52198 -6.93372 
803 1 -3.44249 3.69162 -5.94043 
1394 1 -2.46856 4.37376 -6.21651 
945 1 -3.17756 4.44674 7.16622 
353 1 -3.19845 3.92372 -6.59143 
175 1 -1.27745 4.06732 -6.77923 
686 1 -1.65412 4.10092 -6.0068 
597 1 -0.946057 4.8761 -7.13431 
2304 1 -0.510685 3.50136 -7.05992 
2285 1 -0.211489 4.29912 -6.76565 
3378 2 -0.415813 3.63138 -5.83156 
1817 1 0.640896 4.02572 -6.22476 
2080 1 0.447232 3.25653 -6.85735 
3478 2 1.88782 3.38536 -6.72111 
3466 2 1.61382 4.15416 -6.46276 
324 1 0.561466 4.11338 -7.02206 
899 1 2.7665 3.44756 -6.09751 
839 1 2.87608 4.01269 -6.57458 
1261 1 2.50965 4.27915 -5.70994 
3551 2 3.75627 4.03976 7.1328 
16 1 4.69851 4.69567 -6.19128 
703 1 3.61509 4.31098 -5.99721 
862 1 5.74323 3.78211 -6.87278 
2086 1 5.0115 3.83383 -6.67518 
2597 1 6.64133 3.59819 -6.5144 
2061 1 -7.19937 3.75808 7.16295 
1200 1 6.40366 4.3778 -6.48637 
522 1 -6.14882 5.42748 -6.94998 
1410 1 -7.08454 5.32965 -6.98252 
3147 2 -6.65031 5.21768 -5.82625 
3471 2 -4.40266 5.2655 -6.4257 
3463 2 -4.51707 6.04802 -6.14268 
297 1 -5.4625 5.62519 -6.43416 
138 1 -3.4558 5.60949 -6.72209 
101 1 -3.05612 4.93971 -6.3824 
2832 2 -2.25254 5.61116 -7.04552 
1881 1 -2.25505 5.15017 -5.6859 
912 1 -1.31386 4.82203 -6.33077 
1308 1 -1.62699 5.65478 -6.06074 
1767 1 0.597755 5.02795 -6.72771 
1889 1 0.34451 5.23297 -5.87271 
2675 1 0.486902 5.92484 -6.86568 
225 1 -0.319902 5.19167 -6.59861 
3138 2 1.62613 5.06557 -6.24625 
96 1 2.798 5.06442 -6.5227 
3223 2 4.00496 4.78699 -7.04981 
3215 2 3.81658 5.56956 -6.69378 
2530 1 5.59716 4.79496 -6.62481 
2568 1 4.99915 4.84349 7.1245 
2678 1 4.86972 5.86108 -7.06379 
2142 1 6.76742 5.21209 -6.34328 
1667 1 6.79028 4.81082 -5.41926 
2200 1 -6.31399 6.19576 -6.57527 
1616 1 -6.77542 6.92264 -6.56484 
233 1 -5.55926 6.38606 -6.824 
2045 1 -5.03452 5.84843 7.01133 
491 1 -5.7548 6.16781 -5.81829 
3150 2 -4.78741 6.78175 -6.01913 
1004 1 -4.72032 6.72235 -7.03208 
2342 1 -3.42359 6.35511 -6.27373 
601 1 -3.73703 -7.13163 -5.68898 
3268 2 -2.67256 7.10577 -6.52066 
3454 2 -2.48703 6.27266 -6.83844 
2635 1 -1.10185 5.66551 -6.99024 
197 1 -1.82771 -7.12336 -5.74657 
2446 1 -2.16358 6.27389 -5.74681 
1435 1 -1.47375 6.64418 -6.31824 
1521 1 0.049158 7.00454 -6.06394 
1663 1 0.653381 6.9255 -6.64062 
2524 1 -0.496186 6.08787 -6.41349 
1639 1 0.436429 6.12708 -6.02741 
2831 2 1.52994 5.81998 -6.06916 
2899 2 1.41418 6.55816 -5.86669 
2024 1 1.89574 6.50094 -7.04084 
1905 1 2.79668 -7.05772 -7.10805 
2379 1 2.79784 6.11811 -6.35265 
2048 1 2.46756 6.88807 -6.33547 
255 1 2.50376 5.69097 -7.08448 
2790 2 3.81445 6.35108 -6.44805 
924 1 4.90172 -6.82406 -6.04217 
2711 1 5.39085 6.30936 -6.22981 
1311 1 4.73065 6.72097 -6.87642 
2573 1 6.95298 -7.03602 -7.01739 
302 1 6.54922 6.29366 -6.30904 
1697 1 -7.16623 6.03889 -6.73286 
3539 2 5.80468 6.30054 -7.19129 
213 1 6.15742 5.51128 -6.05552 
3487 2 -7.16799 -6.91096 -5.40634 
695 1 -6.31463 -6.38863 -5.51091 
2473 1 -6.13251 -7.09465 -4.78303 
2462 1 -6.22998 -6.23812 -4.55272 
1184 1 -5.18923 -6.2413 -4.56566 
2176 1 -4.35644 -5.83755 -4.81293 
1506 1 -3.66938 -5.83508 -5.36656 
1235 1 -4.12896 -6.70459 -5.13285 
427 1 -2.52481 -7.0704 -5.29907 
1149 1 -3.05912 -6.44979 -5.33483 
1567 1 -1.8888 -6.07701 -6.11042 
1665 1 -2.06833 -7.17377 -4.53819 
2002 1 -2.36102 -6.20624 -4.93027 
3322 2 -1.34398 -6.39427 -4.93645 
3594 2 -1.08015 -7.05965 -5.02894 
786 1 -0.113077 -6.16709 -5.29564 
1107 1 0.780747 -6.37628 -4.59273 
2978 2 1.16276 -7.01334 -5.83544 
3128 2 0.937019 -6.4408 -5.55215 
2632 1 1.95805 -6.32078 -4.89928 
811 1 2.37062 -6.96022 -5.08169 
2096 1 1.46881 -6.99374 -4.5805 
949 1 2.21968 -6.79796 -5.89141 
1211 1 3.09675 -6.5956 -5.12005 
1416 1 4.30898 -6.4903 -5.53689 
2136 1 3.67116 -6.11104 -4.90589 
916 1 5.82597 -6.66404 -5.4019 
3290 2 5.08024 7.04741 -4.84283 
2825 2 5.0144 -6.60635 -4.66152 
610 1 6.32231 -7.15854 -4.72708 
2828 2 6.90051 -6.14881 -5.30786 
893 1 5.99967 -6.14402 -4.71588 
1851 1 -6.36152 -5.56424 -5.05865 
3416 2 -5.4039 -5.3128 -5.64337 
1994 1 -5.63813 -5.37683 -4.53429 
1406 1 -4.31605 -5.3103 -5.73333 
1086 1 -3.08763 -5.31688 -4.94373 
579 1 -2.42025 -5.56942 -5.50462 
897 1 -2.4487 -4.60836 -5.211 
2083 1 -1.62598 -5.00789 -5.84007 
3480 2 -1.33407 -5.47943 -4.82003 
1747 1 -1.00266 -5.74043 -5.91936 
1127 1 -0.472095 -5.02367 -5.56574 
1689 1 -0.0522659 -5.64438 -6.01518 
2058 1 -0.186339 -5.36679 -4.86342 
2826 2 0.955988 -5.66008 -5.5711 
1538 1 1.8916 -5.32566 -5.31154 
1385 1 2.17341 -6.01902 -5.70694 
1945 1 2.74965 -5.85598 -4.96737 
1234 1 2.85926 -4.98137 -4.74298 
2469 1 4.01739 -5.25053 -5.23703 
2566 1 3.57682 -5.20299 -4.36314 
2539 1 3.99755 -4.43819 -5.05008 
452 1 4.83889 -5.21364 -5.59879 
1493 1 5.9446 -5.65351 -5.67516 
589 1 5.69109 -5.31142 -4.93432 
3340 2 4.87124 -5.79568 -4.50705 
639 1 6.3094 -6.11044 -6.28404 
3010 2 7.03533 -5.47592 -5.12274 
3080 2 6.84153 -4.76326 -4.88652 
2670 1 -6.74989 -3.55059 -4.74516 
335 1 -6.64822 -4.50155 -5.25721 
3325 2 -5.33446 -4.53677 -5.47474 
2912 2 -5.65752 -3.89138 -5.33995 
843 1 -4.47983 -4.04199 -4.75305 
1144 1 -3.69825 -4.53386 -4.99504 
477 1 -4.34047 -3.34336 -5.63198 
1671 1 -3.13845 -3.84434 -4.62367 
1629 1 -2.55594 -3.70649 -5.18549 
2549 1 -1.67851 -4.04485 -5.47496 
2105 1 -1.2275 -3.36612 -5.32195 
2768 2 0.535066 -4.05837 -5.05148 
3068 2 0.682139 -4.92362 -5.18794 
2439 1 -0.874892 -4.33048 -5.5116 
619 1 1.69652 -4.342 -6.1488 
19 1 1.66561 -4.15259 -5.36547 
2933 2 3.00404 -4.48206 -5.71853 
3249 2 2.81976 -3.68497 -5.48965 
26 1 3.80829 -3.49123 -4.88792 
153 1 5.09326 -4.44827 -5.15363 
2306 1 5.80123 -3.5799 -5.38492 
1322 1 4.45927 -3.74432 -5.44923 
2101 1 6.86102 -3.47054 -5.63732 
2015 1 5.91016 -4.37313 -5.49334 
3173 2 6.65658 -3.90248 -4.75384 
1006 1 -6.84722 -2.74005 -4.87062 
2360 1 -6.48255 -2.06922 -5.85987 
2890 2 -5.85343 -2.59012 -4.84203 
2737 2 -5.73597 -3.20168 -5.29791 
523 1 -3.80094 -3.38859 -4.84419 
2480 1 -4.8153 -2.67435 -5.39853 
2844 2 -3.89792 -2.08251 -5.69123 
594 1 -2.63762 -2.79081 -5.15316 
228 1 -2.69537 -1.985 -4.99226 
1087 1 -1.8043 -2.38331 -5.31737 
460 1 -1.13356 -1.90492 -4.72122 
3227 2 0.311115 -3.29018 -4.85218 
3430 2 0.36688 -2.34686 -4.80297 
527 1 -0.327328 -1.77158 -5.54937 
1931 1 -0.779609 -2.53233 -5.1874 
1313 1 1.57006 -3.19116 -5.47134 
502 1 1.59168 -2.47259 -5.90806 
1644 1 1.45915 -2.13793 -5.11846 
3014 2 2.71603 -2.84279 -5.49708 
2830 2 2.52033 -2.08644 -5.15812 
1653 1 3.18256 -1.91511 -4.41123 
40 1 3.95429 -3.25767 -5.69865 
850 1 4.51258 -2.80403 -4.93368 
27 1 3.59873 -2.26179 -5.52939 
1215 1 3.51539 -2.56025 -4.65917 
85 1 5.4113 -2.70428 -5.0892 
2721 1 -6.75114 -3.02172 -5.65693 
2617 1 6.11263 -2.05779 -5.57572 
346 1 7.11353 -2.31142 -5.41352 
1927 1 -7.15324 -1.31963 -5.58269 
2974 2 -6.02128 -1.7899 -4.99265 
2993 2 -6.28826 -1.08822 -4.85058 
1369 1 -7.18891 -0.4558 -5.24167 
2320 1 -4.96399 -2.19562 -6.03706 
56 1 -5.47338 -1.08814 -5.78536 
874 1 -4.99239 -1.70375 -5.16466 
3543 2 -3.47714 -1.52756 -5.84613 
3256 2 -3.95552 -1.29311 -5.30558 
2302 1 -4.61741 -1.37925 -4.31349 
2465 1 -3.13217 -1.24644 -4.72779 
2589 1 -2.3753 -1.04858 -4.91073 
913 1 -2.64039 -0.77453 -5.59852 
858 1 -1.6028 -1.33361 -5.05038 
2013 1 -0.647145 -1.03237 -5.48546 
1195 1 -1.43674 -0.495197 -4.83043 
400 1 0.529863 -1.34124 -5.48705 
922 1 0.527626 -2.24203 -5.82059 
308 1 1.3803 -1.39433 -5.74935 
1897 1 1.05284 -1.31705 -4.6895 
3356 2 2.23554 -1.37006 -4.96441 
3557 2 2.15023 -0.572794 -5.00243 
656 1 3.22676 -0.960151 -5.80827 
2995 2 4.35898 -0.735645 -5.76637 
1527 1 4.29536 -1.84442 -4.76673 
1911 1 3.52221 -1.30016 -4.9581 
2972 2 4.5419 -1.70561 -5.71617 
734 1 5.38836 -1.74777 -5.0288 
556 1 5.36571 -0.852508 -5.04165 
148 1 6.40219 -1.31271 -5.33574 
802 1 7.10928 -0.948197 -4.2935 
2605 1 -5.75762 -0.287414 -5.61983 
1207 1 -7.18731 0.430518 -5.41433 
1781 1 -5.25012 -0.774318 -5.06572 
1224 1 -5.15473 0.0393736 -5.90366 
670 1 -5.36303 0.20462 -4.86252 
3144 2 -4.13393 -0.502886 -5.21367 
596 1 -3.13598 -0.0736249 -5.56339 
2466 1 -2.62361 0.426324 -5.1649 
2108 1 -3.30579 -0.362348 -4.49427 
640 1 -2.36095 -0.200398 -4.67941 
2939 2 -1.79792 0.555833 -5.95993 
2508 1 -1.91213 0.495829 -4.50258 
1623 1 -1.19076 0.382529 -4.98656 
154 1 -0.737119 -0.246876 -5.64028 
1489 1 0.152061 -0.445227 -5.37742 
2298 1 1.08415 -0.474651 -5.41467 
75 1 0.620847 -0.322712 -4.59198 
76 1 1.279 0.512017 -5.79818 
3449 2 1.76004 0.0559445 -4.6538 
2712 1 0.619108 0.408091 -5.20272 
1695 1 2.95909 -0.168011 -5.74012 
2708 1 2.18195 0.530666 -6.03096 
941 1 3.25914 -0.290296 -5.03326 
3317 2 4.18609 0.0221602 -5.52223 
1414 1 5.37316 -0.389301 -5.93377 
970 1 5.21879 0.454229 -6.1629 
2380 1 5.58317 0.198494 -5.29291 
1472 1 6.2524 -0.461277 -5.07237 
34 1 6.2498 0.544124 -4.83098 
1607 1 -6.2374 0.502636 -5.65273 
1514 1 -6.26893 1.29242 -5.5686 
723 1 6.77317 1.26993 -4.80517 
2578 1 -7.19765 1.61445 -5.4593 
668 1 -5.45171 0.915619 -5.39102 
2010 1 -5.44995 1.26491 -4.5003 
2861 2 -4.27012 0.294891 -5.04849 
3062 2 -4.31437 1.11866 -5.16471 
1353 1 -3.52747 2.12734 -5.85424 
83 1 -3.22577 0.753926 -5.77127 
2846 2 -2.20087 1.2932 -5.68762 
1512 1 -3.05757 1.63163 -5.2109 
1661 1 -0.836322 1.6522 -5.68469 
287 1 -1.33255 1.22662 -4.96467 
1971 1 -0.293681 0.371159 -5.3135 
603 1 -0.277509 1.20763 -5.13316 
1065 1 0.545655 1.21148 -5.09718 
3443 2 1.59879 1.2906 -4.63643 
110 1 3.02284 0.784361 -5.90677 
1524 1 3.1964 0.584518 -5.15839 
2730 1 1.95413 1.41328 -5.8752 
3383 2 2.08072 0.690645 -4.99776 
2848 2 4.14972 0.842968 -5.4107 
3364 2 4.06366 1.61658 -5.33999 
499 1 5.21212 1.13031 -5.73579 
50 1 5.66784 1.45841 -4.7829 
1520 1 4.7084 1.71294 -4.49155 
2021 1 5.11683 0.743192 -4.78157 
2147 1 5.679 2.5347 -4.70272 
3414 2 6.15798 2.1131 -5.9433 
131 1 -6.49417 2.16475 -5.39934 
2396 1 -5.14918 2.59363 -5.74247 
2037 1 -5.56329 2.26472 -4.64459 
408 1 -5.47291 1.68625 -5.51113 
3456 2 -4.59949 2.62138 -4.78991 
1725 1 -5.90825 2.94784 -5.2615 
2560 1 -3.93086 3.03821 -5.67052 
2845 2 -4.54102 1.88133 -5.0684 
1691 1 -4.84229 3.39936 -5.78844 
3117 2 -2.12078 2.17136 -5.65094 
2945 2 -2.49111 2.81394 -5.51956 
1336 1 -3.51815 2.4845 -5.00066 
1265 1 -1.14748 2.28234 -4.9643 
330 1 -1.56198 3.09486 -4.8304 
2542 1 -0.311764 2.23537 -5.04431 
620 1 -0.516969 3.20671 -4.93799 
1993 1 0.371285 2.94568 -4.72217 
371 1 1.41978 2.37137 -5.70122 
867 1 0.68009 2.24306 -5.24435 
1978 1 1.50967 3.25301 -5.52035 
84 1 2.3153 3.0374 -5.49685 
1677 1 2.29808 2.09058 -5.48582 
1066 1 3.06534 2.57684 -6.03357 
851 1 2.77185 1.59081 -5.1872 
23 1 2.67498 2.72992 -4.64736 
3388 2 3.77256 2.31119 -5.08381 
1092 1 5.16432 2.05912 -5.48316 
2917 2 5.65897 3.68201 -5.62325 
82 1 4.69399 3.13806 -5.60641 
1229 1 -7.06222 2.9521 -5.51455 
3298 2 6.0245 2.87254 -5.68249 
806 1 6.75188 2.503 -4.95724 
2297 1 -6.89353 4.44328 -5.092 
2653 1 -6.47404 3.70063 -5.1519 
35 1 -5.4359 3.65455 -5.30788 
3457 2 -4.8978 4.2254 -4.5572 
1845 1 -5.37242 4.29115 -6.1056 
59 1 -4.7284 4.68494 -5.6172 
2490 1 -3.64981 3.60137 -4.88664 
561 1 -4.17701 4.00682 -5.61689 
1344 1 -3.88903 4.45617 -4.6878 
2977 2 -2.6631 3.60082 -5.37169 
2865 2 -2.79102 4.403 -5.13911 
448 1 -1.67515 4.58378 -5.22135 
159 1 -1.46659 3.23594 -5.85664 
1638 1 -1.15147 3.89528 -5.13513 
2208 1 0.341808 3.84972 -5.06249 
3392 2 -0.600501 4.43334 -5.74953 
1763 1 -0.270763 4.16921 -4.57887 
673 1 0.627299 3.27308 -5.58084 
1848 1 1.19674 4.07392 -5.32256 
301 1 1.95244 3.88446 -5.24444 
3433 2 3.71982 3.16795 -5.11922 
2894 2 3.37784 3.8542 -5.02915 
221 1 4.39936 3.68551 -6.11905 
2927 2 5.73831 4.38811 -5.48651 
2707 1 7.08976 3.95689 -5.95923 
1169 1 6.85961 3.85526 -5.08906 
440 1 6.33129 4.38016 -4.64004 
829 1 -5.79903 4.52227 -5.14162 
3330 2 -6.84603 5.90404 -5.57483 
942 1 -5.4603 5.15903 -5.71056 
587 1 -5.03253 5.70489 -5.2979 
507 1 -4.25115 5.38675 -4.95103 
223 1 -3.68643 5.56426 -5.47643 
2318 1 -3.5689 4.60999 -5.83695 
3458 2 -3.04827 5.14489 -4.78615 
1012 1 -2.82334 5.63497 -6.02164 
341 1 -1.85656 5.40899 -4.93796 
1505 1 0.607027 4.54413 -5.5236 
3207 2 -0.667275 5.20115 -5.59944 
2392 1 0.248981 5.11526 -4.9128 
3018 2 -0.686335 5.95773 -5.50682 
1924 1 1.44353 5.02255 -5.13707 
586 1 0.786196 5.69663 -5.04732 
2429 1 1.73182 5.85302 -4.9026 
2814 2 3.19723 4.64161 -4.70033 
2305 1 3.09004 5.0769 -5.71084 
696 1 2.34497 5.59892 -5.49587 
2669 1 2.11706 4.71588 -5.20223 
2092 1 4.14172 5.07659 -5.72735 
1515 1 4.57587 4.24387 -5.52478 
2088 1 5.02773 5.50942 -6.36373 
189 1 4.56424 5.75875 -5.75298 
2414 1 4.25832 4.91066 -4.91149 
3257 2 5.38021 5.03745 -4.9679 
2971 2 5.51832 5.71063 -5.06419 
13 1 6.59904 5.70235 -5.25513 
112 1 6.47716 5.22168 -4.48025 
2747 2 -6.99434 6.69008 -5.43463 
558 1 -5.97369 7.10447 -5.70225 
29 1 -5.93808 5.56301 -4.92076 
1872 1 -5.6917 6.43998 -4.97096 
2033 1 -4.70035 6.39641 -4.98305 
278 1 -5.16799 -7.14995 -4.78642 
1481 1 -3.92267 6.35044 -5.26634 
1391 1 -4.02456 5.94989 -4.41692 
1643 1 -2.96735 6.59646 -5.55522 
2988 2 -2.98393 5.92365 -4.62938 
3265 2 -3.12002 6.62037 -4.46566 
1499 1 -2.1281 6.55943 -4.97629 
3455 2 -1.12556 6.59916 -5.19863 
2630 1 -0.0411769 -7.05396 -5.28693 
401 1 0.223552 6.4658 -5.18734 
849 1 0.995192 6.61223 -4.86709 
799 1 1.8988 6.68525 -4.8434 
798 1 3.31095 6.99954 -5.36173 
1935 1 2.54142 6.60891 -5.47675 
244 1 3.38288 5.99928 -5.59291 
1530 1 4.78795 6.70228 -5.94787 
1442 1 4.08094 7.05165 -5.35443 
1985 1 5.84769 6.94375 -6.00995 
2926 2 5.23703 6.34814 -4.97068 
1871 1 6.29618 6.53839 -5.37223 
1965 1 6.74491 6.21016 -4.6825 
1013 1 -6.74646 7.13645 -3.71208 
698 1 -6.94938 -6.76487 -4.28051 
2507 1 -7.07814 -6.10009 -3.92545 
3375 2 -5.80012 -6.31568 -3.60589 
246 1 -4.48707 -6.72531 -4.15203 
3413 2 -3.28482 -6.34264 -4.20894 
2227 1 -3.72677 -6.25973 -3.09137 
2835 2 -3.30371 -6.99666 -4.4303 
1585 1 -2.0007 -6.3063 -3.91216 
1327 1 -1.29228 -7.1758 -3.96553 
2052 1 -0.92535 -6.16846 -3.99478 
2626 1 -0.063996 -6.21256 -4.38455 
3056 2 0.641313 7.19824 -3.33941 
3236 2 0.45553 -6.41777 -3.36822 
15 1 1.27938 -6.16273 -3.99712 
1289 1 1.75131 -7.04139 -3.80619 
3303 2 2.82623 -6.52332 -3.94793 
3497 2 2.90849 7.10099 -4.15687 
709 1 3.89611 -6.97541 -4.50579 
1526 1 3.89152 -6.19832 -4.06029 
2315 1 3.72192 -7.08019 -3.32034 
279 1 3.40069 -6.23972 -3.07502 
1000 1 5.75724 -6.55531 -3.85866 
281 1 4.63893 -7.12292 -3.67606 
938 1 4.40005 -6.29185 -3.43134 
72 1 5.97062 -5.62333 -4.07453 
2703 1 5.56231 6.96107 -3.64478 
1461 1 6.58354 -6.46466 -4.24235 
2533 1 -6.60387 -5.42018 -4.12401 
316 1 -6.21264 -4.66321 -4.54593 
2659 1 -7.16439 -5.36101 -3.25993 
844 1 -7.01407 -4.70108 -3.8474 
977 1 -4.35956 -4.99239 -4.96899 
472 1 -4.84864 -5.1639 -4.09406 
2896 2 -5.94629 -5.62439 -3.25145 
1361 1 -5.21367 -4.5593 -4.30208 
2248 1 -4.74595 -5.83212 -3.69032 
3562 2 -3.64854 -5.70833 -3.97544 
3536 2 -3.73307 -4.92647 -3.84694 
2496 1 -2.62651 -6.30749 -3.27801 
314 1 -2.43355 -5.65777 -4.24051 
520 1 -2.7971 -4.57447 -4.46575 
127 1 -2.28569 -4.73989 -3.7328 
1089 1 -1.50133 -5.38383 -3.6872 
3285 2 -1.68004 -4.8913 -4.73199 
378 1 -0.897255 -5.69855 -3.04732 
2038 1 0.503537 -5.42998 -4.36457 
842 1 -0.604013 -4.45346 -4.62034 
202 1 -0.666465 -5.34313 -4.05899 
1799 1 1.51273 -5.53713 -4.59785 
1160 1 1.32821 -4.55959 -4.35035 
1683 1 1.05685 -4.8269 -3.6154 
1130 1 1.43299 -5.57129 -3.23085 
2918 2 2.3144 -5.81608 -3.91278 
3379 2 2.32854 -5.10516 -3.66864 
1019 1 4.44842 -5.42069 -3.25436 
168 1 3.49285 -5.28708 -3.51746 
3244 2 4.67694 -4.93035 -4.28414 
655 1 5.34172 -5.57786 -3.43973 
535 1 5.44497 -4.59241 -3.43516 
451 1 5.73125 -4.84547 -4.26845 
98 1 6.73201 -5.49811 -4.05162 
1031 1 7.0459 -3.9166 -3.52657 
1182 1 -6.75422 -3.99768 -4.08395 
1444 1 -7.07954 -3.20435 -3.71258 
1071 1 -4.98448 -3.43418 -4.35891 
1449 1 -5.88971 -3.92205 -4.31229 
935 1 -4.61189 -3.41713 -2.96621 
1187 1 -4.93526 -4.12395 -3.43069 
3376 2 -3.88429 -4.18295 -3.78771 
3083 2 -3.91558 -3.3994 -3.66767 
2044 1 -2.63313 -3.84764 -3.76082 
3198 2 -1.66474 -4.25222 -4.34003 
543 1 -1.86916 -4.17204 -3.22732 
2260 1 -0.840101 -3.70055 -3.60028 
1380 1 -0.582482 -3.68349 -4.39638 
1552 1 0.189502 -4.53444 -4.17516 
1028 1 0.61787 -3.95857 -3.69996 
1846 1 -0.731637 -4.50819 -3.75856 
1422 1 1.21584 -3.71033 -4.27695 
2558 1 2.03572 -4.6114 -4.7667 
3015 2 2.08479 -3.69954 -3.29177 
984 1 3.18931 -3.54317 -3.40514 
1425 1 3.11825 -4.13687 -4.46248 
2857 2 4.41908 -4.19173 -4.09034 
3353 2 4.35628 -3.43431 -4.08996 
742 1 3.32001 -4.34844 -3.80311 
1372 1 5.69596 -3.99443 -4.48355 
1841 1 5.17233 -3.50621 -4.89218 
1961 1 5.42606 -3.62717 -3.49992 
1595 1 6.37766 -4.76824 -3.76787 
753 1 6.32319 -3.88631 -3.76264 
1151 1 -6.22708 -3.13666 -4.07111 
808 1 -6.2243 -2.22131 -3.86106 
2132 1 -7.01246 -2.23506 -4.11013 
318 1 -5.3481 -3.25257 -3.62684 
1392 1 -5.1403 -2.08542 -4.28867 
2674 1 -4.58889 -2.70133 -4.63621 
1140 1 -4.05853 -2.06589 -4.62382 
3229 2 -4.12041 -2.67679 -3.63066 
1979 1 -3.41852 -2.62647 -4.68891 
1285 1 -3.41526 -1.90599 -4.10441 
2511 1 -2.75646 -3.15688 -4.2487 
2139 1 -0.523393 -2.75347 -4.1506 
2916 2 -1.65452 -3.56749 -4.38707 
2766 2 -1.73359 -2.79442 -4.31887 
2400 1 -0.968004 -2.72969 -3.33629 
1239 1 0.102433 -3.2953 -3.65831 
904 1 -0.177268 -1.96676 -3.45082 
692 1 0.56535 -2.45301 -3.49398 
541 1 1.59794 -2.96529 -4.79746 
749 1 1.27462 -2.89313 -3.9863 
1611 1 2.19523 -3.8189 -4.57179 
701 1 3.07666 -3.20257 -4.13873 
566 1 2.28846 -2.92108 -4.23779 
1967 1 2.93115 -2.34727 -3.62725 
3134 2 4.11147 -2.92571 -3.6329 
1226 1 5.03039 -2.18736 -4.27854 
721 1 5.43897 -2.99838 -3.90787 
2858 2 6.56113 -2.96573 -4.5411 
1354 1 6.85319 -2.17803 -3.43508 
3116 2 6.34124 -2.29718 -4.46026 
2126 1 -6.80921 -1.46888 -3.8353 
1343 1 -6.26926 -0.9645 -3.42916 
1316 1 -5.35854 -1.25067 -4.26787 
1458 1 -5.80681 -1.56242 -3.6956 
1953 1 -4.83018 -0.628611 -4.29278 
3447 2 -4.36709 -1.94808 -3.32979 
262 1 -3.74676 -1.03323 -4.00454 
2748 2 -2.08928 -2.10394 -4.06504 
2789 2 -2.25584 -1.2893 -3.8489 
1491 1 -0.804273 -1.75475 -3.86243 
393 1 -1.3064 -1.07858 -4.18805 
3354 2 0.0717576 -1.57065 -4.57084 
876 1 -0.64392 -1.13641 -3.34527 
3585 2 -0.320411 -0.803836 -4.4248 
2411 1 1.44276 -1.93694 -4.10478 
1237 1 2.30881 -2.07176 -4.12959 
2237 1 0.593576 -1.34366 -3.50063 
1300 1 2.95893 -0.93201 -4.26614 
2914 2 4.07218 -2.06137 -3.72616 
3483 2 3.82682 -1.24391 -3.60177 
891 1 4.58154 -1.06718 -4.51186 
1340 1 5.25045 -1.8033 -3.56438 
873 1 4.88523 -0.978928 -3.77355 
1999 1 -6.98911 -0.360371 -3.67343 
1483 1 -7.1861 -1.6213 -4.7024 
2856 2 6.22041 -1.55961 -4.3262 
2902 2 5.97724 -0.754604 -4.0865 
3267 2 -6.24562 -0.265863 -4.56894 
1078 1 6.9818 0.25864 -3.22608 
3186 2 -6.44716 0.553719 -4.61089 
521 1 -4.99726 0.355721 -4.16871 
1790 1 -5.65029 -0.473067 -3.78477 
1910 1 -4.67861 1.14482 -4.04798 
2448 1 -5.67278 0.427719 -3.74435 
2278 1 -3.51748 -0.737054 -3.10671 
412 1 -4.08297 -0.33006 -4.05217 
1579 1 -3.76763 0.016533 -3.42021 
3490 2 -2.60542 -0.695015 -3.68826 
3588 2 -2.72404 0.0885614 -3.61915 
954 1 -1.59085 -0.165216 -3.96477 
3500 2 -0.598074 -0.0550813 -4.1889 
665 1 1.2357 -0.938215 -3.96287 
1777 1 0.317664 -0.350549 -3.53618 
2187 1 1.27959 -0.0751022 -3.70767 
2407 1 3.11647 0.270641 -4.22392 
840 1 1.95987 -1.00106 -3.85544 
482 1 2.51589 -0.277565 -3.76772 
414 1 2.05571 0.309597 -3.53503 
130 1 3.93618 -0.374524 -4.48143 
3305 2 3.79399 -0.446175 -3.36945 
613 1 3.98028 0.445727 -4.18154 
1788 1 4.95779 -0.152903 -4.82296 
167 1 4.73745 -0.108733 -4.09062 
2054 1 6.86396 -0.0862313 -4.43379 
2819 2 5.828 0.0625098 -4.02985 
1791 1 -6.7565 0.687621 -3.54262 
3263 2 -6.5227 1.34264 -4.44593 
1807 1 -6.90289 1.52784 -3.30992 
928 1 -5.89052 1.39548 -3.50553 
731 1 -5.27771 1.7726 -3.89667 
697 1 -3.60388 1.41014 -4.48646 
2436 1 -3.33584 0.480023 -4.60959 
1148 1 -4.37027 1.87477 -3.97636 
1815 1 -4.03748 0.69218 -3.92773 
1198 1 -2.42357 1.17858 -4.6052 
3120 2 -2.76051 0.871683 -3.56954 
1812 1 -1.63134 1.19963 -3.97877 
2406 1 -1.54998 1.74795 -3.33238 
3555 2 -0.461127 0.712963 -4.21042 
2950 2 -0.531374 1.53768 -4.18714 
1266 1 0.422548 0.550201 -3.46839 
1375 1 1.50971 0.923125 -3.56958 
1432 1 0.710703 0.495728 -4.25246 
1562 1 0.674451 1.54514 -3.67261 
785 1 3.16138 1.19537 -4.5748 
2575 1 2.2214 1.94795 -3.71265 
295 1 2.58473 1.08317 -3.9397 
925 1 3.82376 1.35074 -4.12017 
2028 1 4.31338 1.4666 -3.47184 
504 1 4.60596 0.834967 -4.04102 
1328 1 4.60926 0.678087 -3.0611 
3369 2 5.61627 1.68011 -3.47718 
3209 2 5.71844 0.980244 -3.80164 
1282 1 6.41603 1.95805 -4.50165 
2584 1 6.79691 0.580838 -3.98417 
3260 2 -6.74289 2.26585 -4.22759 
1095 1 -6.16862 2.09125 -3.03487 
3033 2 -6.96717 3.02637 -4.23402 
2641 1 -5.74873 2.3445 -3.78911 
2383 1 -4.80441 2.57364 -3.56113 
1880 1 -5.3176 3.23363 -3.66249 
2077 1 -4.0352 3.14932 -3.95707 
2395 1 -3.67521 2.26759 -4.21133 
978 1 -3.95241 2.48205 -3.50717 
1367 1 -2.80904 2.10277 -4.60801 
1484 1 -2.32203 2.88669 -4.23301 
1531 1 -3.22261 2.99384 -4.29551 
2932 2 -2.73941 2.21562 -3.32276 
1894 1 -1.86691 1.99523 -4.52172 
1706 1 -1.69427 2.52853 -3.84521 
3196 2 -0.658033 2.32914 -3.97995 
2860 2 -0.717158 3.18803 -3.81924 
46 1 0.494186 2.54511 -3.84906 
2673 1 0.438817 1.72504 -4.4499 
14 1 1.06702 2.73489 -3.36754 
3241 2 1.60656 2.13648 -4.63655 
3063 2 1.52203 2.90128 -4.39763 
1098 1 1.38903 1.83357 -3.60789 
2135 1 2.72115 1.84314 -4.29912 
1466 1 2.52317 2.89229 -3.79491 