ITEM: TIMESTEP
38500
ITEM: NUMBER OF ATOMS
3594
ITEM: BOX BOUNDS pp pp pp
-7.1983185121017961e+00 7.1983185121017961e+00
-7.1983185121017961e+00 7.1983185121017961e+00
-7.1983185121017961e+00 7.1983185121017961e+00
ITEM: ATOMS id type x y z 
1291 1 -6.06631 -6.67154 -6.08649 
1616 1 -6.94573 -6.90878 -6.50355 
639 1 -6.73753 -6.07688 -6.2635 
2582 1 -5.6921 -6.94717 -6.85301 
3477 2 -4.89618 -7.11487 -5.94974 
1273 1 -4.92513 -6.21659 -6.77136 
3520 2 -4.90472 -6.26978 -5.63754 
1117 1 -4.18586 -6.64228 -7.09643 
2546 1 -3.9329 -6.23039 -6.32332 
833 1 -3.76591 -7.16974 -5.85791 
1490 1 -3.6125 7.11056 -6.76644 
2944 2 -2.79381 -6.58655 -6.58735 
3268 2 -2.54488 7.05617 -6.66502 
1167 1 -1.37346 6.12256 -7.04608 
1356 1 -1.65955 -7.08731 -7.1455 
1747 1 -1.40624 -6.54067 -6.34849 
2368 1 0.522563 -6.92169 -6.68265 
3368 2 -0.597754 -5.8801 -7.01245 
1836 1 1.0468 -6.3507 -6.78092 
2627 1 2.15189 -6.57956 -6.45509 
1587 1 1.89612 -5.66224 -6.45692 
949 1 2.36083 -6.8472 -5.60846 
2623 1 2.42349 -5.96606 -7.15212 
3587 2 3.50564 -6.88223 -6.35235 
3569 2 3.61678 6.79689 -6.35427 
248 1 4.41404 -6.1847 -5.96174 
3208 2 5.57916 -6.21427 -6.69563 
1530 1 4.51996 -6.81908 -6.55108 
1320 1 6.7874 -6.55357 -6.93084 
916 1 6.35115 -6.33755 -5.85456 
1493 1 6.61864 -5.95021 6.76718 
1345 1 -5.70342 -5.9988 -6.61905 
274 1 6.82007 -5.92909 -6.4239 
3495 2 -6.59887 -5.5737 -7.16115 
392 1 -5.51205 -4.85812 -6.55009 
1654 1 -4.65513 -5.32184 -6.6025 
2702 1 -4.06999 -5.19262 -5.99914 
2459 1 -3.75622 -5.57452 -7.01146 
3574 2 -2.78276 -5.89359 -6.2939 
2981 2 -3.02102 -5.18699 -6.3106 
2018 1 -1.77074 -6.16318 -6.91463 
2083 1 -1.50989 -5.60198 -6.28667 
3019 2 -0.768036 -5.07456 -6.87901 
1333 1 0.483426 -4.85505 -6.73552 
2453 1 -0.0256902 -5.40417 -5.96117 
1689 1 -0.0750817 -6.39182 -6.09338 
774 1 1.32425 -5.22948 -6.37537 
1734 1 2.37907 -5.12372 -6.9198 
329 1 2.86563 -4.28953 -6.90576 
3442 2 3.2043 -6.16437 -6.33396 
2415 1 4.12369 -5.82741 -6.92145 
190 1 3.99912 -4.36168 -6.02794 
2812 2 5.29643 -5.50517 -6.53916 
3212 2 5.20267 -4.70609 -6.3399 
1416 1 4.16574 -5.37344 -6.12853 
2574 1 6.30785 -5.35646 -6.94974 
589 1 5.96179 -5.74417 -5.37901 
2706 1 -6.24133 -4.53263 -6.59956 
2975 2 -7.00964 -4.06435 -7.02178 
572 1 -6.29387 -3.78815 -5.99505 
3029 2 -7.05292 -4.93057 -7.11292 
1640 1 -5.52925 -3.56069 -6.40922 
1020 1 -4.80222 -4.27949 -6.38809 
1477 1 -4.71084 -3.35111 -6.06349 
3061 2 -3.03024 -4.33354 -6.12453 
1835 1 -3.96086 -3.62131 -6.85008 
2321 1 -4.05471 -4.56106 -6.68799 
890 1 -2.52504 -4.39967 -7.14498 
1183 1 -3.45655 -4.16919 -7.12078 
139 1 -2.99613 -3.40038 -7.05011 
3484 2 -0.852705 -4.38593 -6.64938 
2808 2 -1.14207 -3.6157 -6.49337 
2549 1 -2.05977 -4.12689 -6.3807 
1050 1 0.130976 -3.82169 -6.64811 
632 1 0.222077 -4.43162 -6.08594 
2537 1 1.18312 -4.20127 -6.1131 
2709 1 1.88218 -3.569 -6.08006 
250 1 0.983599 -3.31517 -5.98396 
3503 2 1.27101 -3.7902 -7.16844 
483 1 2.30306 -3.45404 -6.86866 
619 1 2.00957 -4.42247 -6.46572 
2256 1 3.71997 -4.69001 -6.84095 
1418 1 3.07382 -3.58224 -6.63106 
847 1 4.09439 -3.94858 -7.15669 
3266 2 4.8965 -3.90379 -6.46141 
2767 2 4.88176 -3.13481 -6.02503 
1981 1 5.1479 -3.0168 -7.16145 
1597 1 6.24175 -4.33224 -6.49594 
2211 1 6.18262 -4.3969 7.02167 
2612 1 -6.66377 -2.81266 -5.70508 
2114 1 -6.26409 -2.30418 -6.9053 
2661 1 -6.10226 -3.09478 -6.4635 
41 1 -5.67657 -1.90978 -5.94004 
477 1 -5.41046 -2.66241 -6.22949 
2381 1 -3.96905 -2.85583 -7.19154 
2869 2 -3.63119 -2.94849 -5.95473 
2320 1 -4.57885 -2.51367 -6.4704 
3041 2 -3.18209 -3.53855 -5.97928 
743 1 -3.19802 -2.42555 -6.8234 
965 1 -2.35781 -1.80295 -6.98519 
2057 1 -2.2402 -3.33537 -6.72644 
3332 2 -1.3223 -2.78856 -6.49556 
3234 2 -1.46219 -2.10334 -6.32118 
2263 1 -0.460977 -3.59803 -5.42116 
607 1 -0.305712 -2.41972 -6.77077 
2718 1 -0.0173359 -3.12803 -7.04575 
628 1 2.05768 -2.70535 -6.48988 
2631 1 -0.15897 -3.26247 -6.13936 
3347 2 1.08488 -3.10791 -7.11618 
2804 2 0.952957 -2.45843 -6.89096 
2628 1 2.97608 -2.65033 -6.37192 
1770 1 2.06304 -2.28075 -7.17588 
2645 1 3.69344 -2.69647 -6.55918 
2150 1 3.37982 -1.62917 -5.99943 
40 1 3.62743 -2.41795 -5.67335 
42 1 3.92005 -2.05222 -6.84493 
3550 2 4.69041 -2.37349 -5.98334 
304 1 5.90001 -2.70127 -7.10671 
3126 2 7.17716 -3.33222 -6.80587 
1373 1 5.9091 -3.56392 7.18951 
2074 1 5.93359 -2.66284 -6.16422 
3087 2 6.98858 -2.53352 -6.72017 
2353 1 -6.55248 -0.965159 -6.41321 
2360 1 -6.60739 -1.45895 -5.67836 
547 1 -6.77638 -1.52546 -7.08559 
1445 1 -6.68093 -2.08583 -6.11549 
90 1 -5.70031 -1.09912 -5.84123 
18 1 -4.71412 -1.7209 -6.1287 
3360 2 -5.48661 -1.55099 -6.97711 
2892 2 -5.23435 -2.14738 7.06918 
1434 1 -4.06289 -2.0003 -6.90135 
1722 1 -4.11511 -1.16558 -6.86681 
1928 1 -3.25654 -1.58637 -6.72499 
1635 1 -2.65112 -1.1657 -6.39696 
3105 2 -1.56576 -1.21943 -6.2438 
3200 2 -1.75056 -0.369081 -6.0966 
321 1 -1.51229 -1.47407 7.01788 
3088 2 0.384011 -1.13792 -6.82902 
2326 1 -0.891848 -0.814898 7.19162 
1374 1 -0.442958 -1.67789 7.10883 
1859 1 1.70379 -1.83616 -6.27458 
3151 2 0.88005 -1.59381 -7.08671 
2520 1 1.32903 -1.09785 -6.19275 
151 1 1.91392 -1.45668 7.08764 
388 1 2.5742 -1.78001 -6.40862 
296 1 2.35947 -0.898872 -6.43022 
1648 1 3.5552 -1.28297 -6.66138 
1085 1 3.93341 -0.565909 -6.90558 
1362 1 4.65322 -1.46536 -7.11779 
2510 1 5.6498 -1.85322 -6.25983 
2972 2 4.60742 -1.7137 -5.79546 
556 1 5.49509 -0.950773 -6.01844 
2840 2 6.8115 -1.86304 -6.44544 
2797 2 6.56468 -1.10683 -6.36987 
2617 1 6.18508 -1.83804 -5.43655 
519 1 -6.97041 0.0657612 -6.64038 
115 1 -7.11604 0.936114 -6.50421 
3097 2 -5.60586 -0.799706 -7.05916 
3127 2 -5.8758 0.0474063 -6.85918 
56 1 -4.65505 -0.940445 -6.36158 
1001 1 -3.99096 -0.0733923 -6.43832 
1446 1 -3.38669 0.464404 -6.31673 
2699 1 -4.59787 0.00596343 -6.91606 
323 1 -2.55982 -0.234056 -6.7222 
964 1 -2.70555 0.585127 -6.8743 
1112 1 -3.28815 -0.54688 -6.31095 
28 1 -1.9617 0.586862 7.19066 
1828 1 -1.73578 -0.399177 -7.17912 
1745 1 -0.98096 -0.100369 -6.69341 
3311 2 0.211748 -0.315181 -6.87679 
154 1 -0.594268 -0.913007 -6.3837 
2600 1 1.69568 -0.561665 -7.14532 
2708 1 1.36836 -0.116326 -6.40508 
171 1 1.16819 1.12374 6.56168 
1695 1 2.13158 -0.139564 -6.24634 
1034 1 3.15739 0.180098 -6.356 
2418 1 3.83542 0.318158 -6.84396 
366 1 4.24414 1.12584 -6.57454 
1414 1 5.04914 -0.47299 -6.79486 
970 1 4.64243 0.291817 -6.64993 
2380 1 5.46792 -0.0806779 -6.01701 
3135 2 6.45192 -0.384756 -6.25836 
3007 2 -5.86446 0.822945 -6.79249 
817 1 -6.96345 1.4715 -5.88273 
3140 2 -5.92001 1.55462 -6.83846 
415 1 -4.82569 0.854494 -6.9025 
1233 1 -4.82942 1.80631 -6.72114 
408 1 -4.99494 0.423161 -6.12181 
433 1 -4.08271 0.830977 -6.27741 
343 1 -1.49962 1.34751 -6.9702 
900 1 -2.6617 1.56808 -6.79362 
1370 1 -1.11991 1.8414 -6.42236 
2081 1 -1.26524 0.519093 -7.0124 
1255 1 -1.33739 2.50741 -5.86971 
1932 1 -0.738387 1.61192 7.15481 
1661 1 -1.13066 0.935017 -6.16836 
2928 2 0.0219912 0.563275 -6.5831 
3078 2 -0.135701 1.36813 -6.31457 
1057 1 1.29393 0.374541 -6.97285 
583 1 1.16809 1.21186 -6.64542 
3459 2 2.15576 1.01835 -7.05531 
3393 2 2.09804 1.8982 -7.02568 
1876 1 3.06107 1.19667 -6.43323 
312 1 3.05595 2.18641 -6.28686 
2068 1 4.11655 1.97008 -6.45459 
1218 1 3.35861 1.79815 -6.99434 
2276 1 5.21848 0.877302 -6.6461 
3038 2 6.38639 0.314148 -6.17217 
2151 1 6.02942 2.12709 7.16987 
3060 2 6.15797 1.08057 -6.15964 
3465 2 -6.11396 2.39699 -6.74598 
2736 2 -6.4071 3.25278 -6.43389 
1335 1 -5.15108 1.3667 -6.0502 
1232 1 -5.16875 2.70662 6.93312 
822 1 -4.92473 2.73544 -6.56584 
1238 1 -5.3755 2.27825 -5.859 
2783 2 -3.93427 2.81843 -7.04263 
1353 1 -4.21805 1.62852 -6.19534 
2560 1 -4.27881 2.57989 -5.9346 
2275 1 -2.89298 2.41545 -6.71628 
883 1 -1.92838 2.24004 -6.79992 
920 1 -1.35514 3.15035 -6.46357 
2304 1 -0.849374 2.43453 -7.11401 
1933 1 -0.601775 3.41101 -6.99561 
3444 2 0.0178658 2.09798 -6.42275 
2813 2 -0.19505 2.82157 -6.00522 
1817 1 1.00124 2.19889 -6.2318 
1773 1 0.877937 2.50177 -7.07143 
3417 2 1.93476 2.71852 -6.71778 
2483 1 3.09897 3.4408 -6.15098 
1113 1 2.99131 2.94626 -6.85849 
1068 1 3.89837 2.87091 -6.166 
805 1 4.95887 2.62631 -6.36423 
284 1 5.05328 3.6018 -6.61617 
795 1 5.22886 1.92003 -6.86017 
1331 1 -7.16282 2.2639 -6.19964 
2386 1 -7.17361 2.36696 7.06754 
339 1 5.71303 3.03165 -6.85826 
3238 2 -6.63772 4.0729 -6.336 
2061 1 7.05503 3.25521 -7.01898 
2519 1 -6.2363 4.01985 7.1461 
536 1 -5.57969 4.07248 -6.28135 
3408 2 -4.29013 3.57668 -6.94596 
3411 2 -4.39941 4.37054 -6.75522 
353 1 -3.37611 4.05229 -6.27936 
101 1 -3.37038 4.28783 7.16174 
1517 1 -2.28399 3.15517 -6.53046 
1772 1 -3.31892 3.044 -6.3565 
1394 1 -2.55684 4.00996 -6.43707 
175 1 -1.09141 4.12038 -6.62724 
912 1 -2.51675 5.59404 -5.73901 
597 1 0.034213 4.14331 -6.85781 
2285 1 0.366145 3.30321 -6.9776 
324 1 1.00377 3.77224 -5.42672 
3478 2 1.96312 3.51213 -6.46606 
3466 2 1.76034 4.18058 -6.38527 
2463 1 0.871486 3.14512 -6.34472 
2314 1 2.89765 3.53472 6.96823 
839 1 2.89695 4.29019 -6.59337 
377 1 3.67085 4.08526 -5.88439 
16 1 4.11598 4.81328 -5.4847 
703 1 3.38563 4.81308 -5.87387 
2086 1 4.50648 3.53554 -5.90789 
2530 1 4.5598 4.56076 -6.21911 
862 1 6.29092 3.70381 -6.4709 
2597 1 6.3554 2.58526 -6.67345 
1200 1 6.81704 4.057 -5.66814 
2594 1 7.03674 4.16034 -7.02843 
3045 2 -6.55108 4.72899 -5.94202 
317 1 -6.32116 4.97621 -7.02568 
292 1 -6.28147 5.75356 -6.5974 
1321 1 -7.16296 4.98013 7.09223 
297 1 -5.68522 5.98221 -5.75151 
2045 1 -5.54089 5.20416 -6.35986 
1845 1 -5.51137 4.75192 -5.63746 
3471 2 -4.37787 5.06802 -6.50766 
3463 2 -4.60394 5.95097 -6.34837 
2318 1 -3.44091 4.77847 -5.73327 
1012 1 -3.36062 5.10372 -6.77913 
2832 2 -2.31183 5.59832 -7.137 
1881 1 -2.74871 4.92175 -6.133 
223 1 -3.22616 5.71855 -6.04684 
2635 1 -1.75961 5.98187 -6.02757 
2524 1 -1.32239 5.248 -6.36371 
1767 1 -0.494488 4.6902 -6.80626 
1889 1 0.33256 5.08789 -6.50833 
225 1 -0.535979 5.68061 -6.53347 
3138 2 1.65959 5.00754 -6.41076 
2831 2 1.45464 5.77313 -5.95153 
474 1 2.22922 5.43271 7.13695 
96 1 2.7348 5.26579 -6.44642 
1016 1 3.1024 5.83374 6.87361 
3223 2 3.77226 4.73475 -6.84464 
3215 2 3.80872 5.44813 -6.67916 
2711 1 5.2587 4.98273 -6.54358 
2568 1 5.00564 4.42919 -7.08696 
2678 1 5.02136 5.87693 -6.6954 
2142 1 6.15439 5.32417 -6.35666 
1410 1 7.07636 5.27461 -6.51744 
213 1 6.41732 4.53383 -6.43516 
522 1 7.10213 6.68774 -6.74603 
2200 1 6.87578 -7.11649 6.88467 
233 1 -5.61635 6.33033 -6.68782 
491 1 -6.24296 6.76594 -6.52115 
3150 2 -4.65012 6.67766 -6.28568 
2342 1 -3.59626 6.21885 -6.58819 
3454 2 -2.47011 6.25076 -6.88353 
245 1 -0.792276 -7.06106 -6.13369 
1308 1 -1.65865 6.92665 -5.89602 
197 1 -1.91208 -6.64076 -5.7445 
1346 1 -1.14974 6.68345 -6.53698 
1521 1 0.831897 6.68525 -6.84954 
1639 1 0.0837207 6.4416 -6.26885 
2630 1 0.057018 7.02548 -5.78628 
2675 1 0.594273 5.83018 -6.76595 
1663 1 1.54082 7.17592 -6.65403 
2899 2 1.43286 6.56521 -5.84001 
2024 1 1.64763 6.23204 -7.01041 
2048 1 2.38729 6.79129 -6.21494 
255 1 2.5279 6.10554 -6.74852 
2212 1 2.96808 6.72936 6.92081 
2790 2 3.81674 6.15637 -6.66925 
2787 2 5.67982 -6.93111 -7.00938 
1311 1 4.74313 6.70165 -6.65634 
302 1 5.7676 6.06224 -6.17233 
1985 1 5.59169 6.82963 -5.98904 
1882 1 4.19833 7.01687 -5.52747 
2573 1 6.98632 6.40331 6.34865 
1697 1 6.57423 7.19369 -6.24254 
3539 2 5.8863 6.60944 7.18964 
13 1 6.61681 6.13062 -6.24741 
3487 2 -7.00808 -6.64745 -5.31582 
695 1 -5.89932 -6.16048 -5.35947 
558 1 -5.81986 6.91369 -5.71222 
2533 1 -6.06867 -6.44381 -4.64267 
278 1 -3.98628 -6.52875 -5.08891 
959 1 -3.75664 -4.87101 -5.20223 
2176 1 -3.56699 -5.66727 -5.31068 
1235 1 -3.96244 6.69083 -5.30738 
427 1 -2.32174 -6.30239 -4.33336 
1149 1 -3.28543 -6.56953 -5.58684 
2002 1 -2.87355 -5.48519 -4.96664 
579 1 -1.84337 -5.80836 -5.57485 
1567 1 -2.55525 -6.22644 -5.20304 
3322 2 -1.07992 -6.22695 -4.80674 
3594 2 -1.13639 -7.05512 -5.05841 
786 1 -0.782702 -6.06681 -5.80215 
1093 1 -0.0629766 -6.64839 -5.1883 
2978 2 1.1034 -7.10873 -5.65932 
3128 2 1.0147 -6.20562 -5.53378 
811 1 2.57256 -6.06842 -5.07588 
2096 1 1.78944 -6.62008 -4.73459 
1211 1 3.06146 -6.94399 -5.15851 
1945 1 3.51328 -6.08195 -5.20786 
1442 1 4.17964 -6.5928 -5.24726 
779 1 5.14334 -5.85689 -5.49818 
924 1 5.05507 -6.82829 -5.84551 
610 1 6.3358 6.82996 -5.51731 
1000 1 6.28252 -6.42907 -4.70273 
1263 1 -6.14764 -5.44597 -5.93261 
1851 1 -6.19817 -5.35985 -4.86804 
3416 2 -5.05379 -5.48177 -5.6795 
3325 2 -5.25112 -4.70366 -5.56971 
1406 1 -4.25396 -5.62327 -4.73083 
1506 1 -3.04821 -4.53135 -5.07785 
1086 1 -2.5037 -4.53643 -4.32088 
897 1 -2.28151 -4.95451 -5.23272 
3480 2 -1.42552 -5.62091 -4.52752 
2439 1 -1.90229 -4.97348 -6.72468 
3285 2 -1.19751 -4.91781 -4.69304 
1127 1 -0.961749 -5.15813 -5.73448 
2626 1 -0.208887 -5.74751 -4.99179 
1837 1 1.75474 -4.97423 -5.78444 
2826 2 0.796606 -5.33037 -5.40606 
3068 2 0.773891 -4.48093 -5.22969 
2957 2 3.08589 -5.40245 -6.07232 
1538 1 2.04293 -5.27866 -4.8871 
1385 1 1.98532 -5.93268 -5.63186 
1234 1 3.10097 -5.25 -4.57823 
1415 1 4.25133 -3.89465 -5.29366 
2469 1 4.18605 -5.42759 -5.27399 
1425 1 3.77895 -4.66932 -5.05865 
2539 1 4.64689 -4.73158 -5.45392 
452 1 5.52387 -4.95922 -5.1609 
2828 2 7.16898 -5.92371 -5.15216 
893 1 5.90021 -6.72831 -5.41274 
3010 2 7.01991 -5.11578 -4.93366 
72 1 6.0417 -5.56215 -4.41034 
2500 1 -7.19322 -5.17107 -6.05996 
2727 1 7.00756 -4.10549 -6.01816 
2670 1 -6.90393 -3.63749 -5.29962 
335 1 -6.57319 -4.57772 -5.86112 
2912 2 -5.40518 -3.95107 -5.48418 
2737 2 -5.72661 -3.2404 -5.15483 
2516 1 -4.18581 -4.21283 -5.68741 
1671 1 -3.59008 -2.94776 -4.702 
523 1 -4.49076 -4.82812 -4.87346 
386 1 -2.25595 -4.13715 -5.31414 
2262 1 -2.0854 -3.35818 -5.70747 
1144 1 -3.69974 -3.86903 -5.10092 
1629 1 -2.89492 -3.38853 -4.90513 
484 1 -1.32943 -4.0611 -5.60437 
2058 1 -0.144432 -4.92452 -4.78349 
3227 2 0.531679 -2.90231 -4.88681 
1931 1 -0.456019 -4.46847 -5.5903 
842 1 -1.71889 -4.89964 -5.7052 
2768 2 0.590205 -3.65455 -5.05013 
19 1 1.79649 -3.96873 -5.14401 
2933 2 2.86391 -4.81755 -5.71431 
3249 2 2.80382 -3.95265 -5.63453 
303 1 3.79845 -3.57403 -6.46688 
26 1 3.46749 -3.73023 -4.84409 
153 1 5.87093 -4.17663 -5.64606 
1322 1 5.14023 -4.05837 -5.09097 
3080 2 6.79239 -4.34557 -4.95091 
2306 1 6.2706 -3.54324 -6.29112 
2015 1 6.3617 -4.9995 -5.89934 
2721 1 7.15277 -2.12575 -5.18279 
2890 2 -5.81521 -2.56141 -5.0764 
2480 1 -4.74831 -2.51695 -5.37529 
1140 1 -4.75822 -2.87864 -4.6153 
1979 1 -4.30012 -3.49946 -5.17658 
1285 1 -4.13826 -2.19105 -4.76286 
911 1 -2.4814 -2.59904 -6.34878 
594 1 -2.09284 -2.48428 -5.33637 
1087 1 -1.21399 -3.16858 -5.37383 
527 1 -0.486496 -1.75022 -5.55144 
3430 2 0.308006 -2.12219 -4.63288 
502 1 0.444565 -2.56368 -5.9016 
922 1 -0.373352 -2.64827 -5.50028 
1313 1 1.56678 -3.15206 -5.20921 
541 1 1.45921 -2.47581 -5.78632 
840 1 1.35985 -2.1417 -5.00142 
3014 2 2.79254 -3.10238 -5.4784 
2830 2 2.57971 -2.41621 -5.20252 
850 1 3.84465 -3.26394 -5.69647 
27 1 3.62275 -2.10834 -4.82283 
1215 1 3.22863 -2.86788 -4.4601 
85 1 4.3249 -2.81332 -4.77221 
346 1 5.89527 -3.33224 -5.4561 
1841 1 5.09414 -3.17192 -4.89859 
2101 1 7.00123 -3.12479 -5.67649 
385 1 -7.08577 -0.882736 -5.50791 
2974 2 -5.97452 -1.80906 -4.87179 
2993 2 -6.20234 -0.988197 -4.8327 
874 1 -4.85857 -1.66812 -5.25283 
2844 2 -3.76522 -2.07602 -5.76549 
3543 2 -3.7682 -1.33964 -5.61803 
1474 1 -2.58252 -1.82425 -5.97252 
913 1 -2.04901 -1.58811 -5.27164 
460 1 -1.19949 -1.5512 -5.17703 
858 1 -1.19625 -2.3837 -5.16455 
1195 1 -0.983855 -0.754636 -5.35962 
2013 1 -0.308889 -1.75869 -6.26402 
400 1 0.203879 -1.29894 -5.72469 
3354 2 -0.0739753 -1.41242 -4.61664 
1644 1 0.975218 -1.74545 -5.70386 
1897 1 0.886394 -1.00882 -5.17601 
3356 2 2.43504 -1.60235 -5.28159 
656 1 3.35525 -1.24353 -5.21287 
2995 2 4.48877 -0.999637 -5.81724 
1527 1 4.41221 -1.74589 -4.61882 
1911 1 3.09778 -1.46139 -4.30221 
891 1 3.85733 -0.84098 -4.69019 
1987 1 5.50764 -2.38749 -5.24048 
734 1 5.41656 -1.45895 -5.13182 
1927 1 6.70994 -1.1512 -5.07498 
1369 1 6.08641 -0.556522 -5.0712 
148 1 6.55427 -2.55373 -5.56498 
802 1 7.14135 -0.571427 -4.41991 
2605 1 -6.04056 -0.295078 -5.86713 
1607 1 -6.88469 -0.166567 -5.869 
3267 2 -6.30156 -0.189333 -4.67084 
3186 2 -6.54272 0.56051 -4.61734 
1781 1 -5.07115 -0.777559 -5.38749 
1224 1 -4.97159 -0.40448 -6.0714 
670 1 -5.37993 0.132593 -5.18983 
3256 2 -3.94468 -0.60554 -5.22716 
3144 2 -4.18249 0.185239 -5.37297 
174 1 -2.5307 -0.907109 -5.41032 
2589 1 -1.79592 -0.42435 -4.96381 
596 1 -2.97419 -0.14076 -5.43533 
2108 1 -3.21787 -0.599209 -4.47528 
640 1 -2.3797 0.239437 -4.90216 
2796 2 -2.0319 0.29736 -5.9633 
1623 1 -1.23392 0.33186 -5.06655 
994 1 -0.787065 0.138403 -5.8537 
1489 1 -0.258837 -0.501531 -5.62674 
2390 1 0.759423 -0.513144 -5.78768 
308 1 0.811844 -0.166856 -4.76795 
2712 1 0.376142 0.175209 -5.45125 
3557 2 2.08355 -0.932127 -5.28197 
3449 2 1.666 -0.128406 -5.32549 
941 1 3.16898 -0.632934 -6.23323 
1524 1 2.66393 0.346923 -5.74003 
3317 2 4.29977 -0.179202 -5.67067 
2848 2 3.93784 0.561502 -5.69097 
130 1 3.17488 -0.229772 -5.32196 
1472 1 5.2611 -0.353976 -5.04842 
1788 1 4.87979 0.353183 -4.97288 
1830 1 4.83299 -0.952261 -4.58775 
1207 1 6.82587 -0.131636 -5.00481 
34 1 5.93295 0.476976 -5.18847 
1514 1 -6.57619 0.629663 -5.88604 
2037 1 -5.61821 1.25192 -5.1927 
668 1 -5.76059 0.699233 -5.78596 
2010 1 -5.45724 0.919094 -4.52736 
2861 2 -4.35032 0.717943 -4.92242 
83 1 -3.27652 1.35182 -6.33498 
2466 1 -3.32848 0.872863 -5.5323 
2846 2 -2.23593 1.78778 -5.73901 
1512 1 -3.51377 1.65527 -5.29263 
2939 2 -2.17729 0.999524 -5.8705 
287 1 -1.29842 1.09632 -5.13057 
159 1 -1.30027 2.2703 -5.07223 
1971 1 -0.348286 0.716708 -5.43399 
603 1 0.644343 1.09524 -5.36841 
1265 1 -0.760127 1.61343 -5.46213 
76 1 1.03291 0.597576 -6.09336 
2730 1 1.26498 1.53054 -5.91987 
3383 2 1.67027 0.6438 -5.09798 
1176 1 2.15923 1.61779 -5.89179 
110 1 1.83509 0.820949 -6.10668 
851 1 2.75438 1.13523 -5.5301 
3364 2 3.87492 1.31625 -5.51132 
1883 1 5.04931 1.5653 -6.10899 
499 1 5.14539 0.531365 -5.74378 
50 1 4.92463 1.42067 -5.22858 
2021 1 4.05982 0.954471 -4.41269 
1092 1 4.67792 1.91185 -4.62695 
723 1 7.04735 0.718973 -5.37029 
2584 1 6.72213 0.757955 -4.64373 
1684 1 6.82191 1.93149 -5.27539 
2578 1 -6.04517 1.78597 -5.69522 
131 1 -6.60883 2.38539 -5.51118 
1725 1 -5.67266 1.76812 -4.53368 
2653 1 -6.07862 3.31849 -4.76239 
2396 1 -5.93103 2.44943 -4.91728 
2845 2 -4.69993 2.29355 -5.00553 
803 1 -3.65535 2.65122 -5.15076 
3062 2 -4.4692 1.53093 -5.19901 
1336 1 -3.45742 2.16298 -6.02898 
3117 2 -2.60565 2.55971 -5.5246 
2945 2 -2.56896 3.23854 -5.51485 
330 1 -1.38301 3.2821 -5.46443 
620 1 -0.227247 2.44008 -4.79065 
1484 1 -1.93714 2.7556 -4.57588 
1894 1 -1.85363 1.64612 -4.65275 
2542 1 0.50042 2.84922 -5.19108 
823 1 0.673604 1.96044 -5.4468 
1368 1 1.828 2.3568 -5.72505 
3241 2 1.52804 2.01702 -4.66739 
3063 2 1.3008 2.78227 -4.40845 
1677 1 2.60528 2.82464 -5.66285 
23 1 2.53492 2.89811 -4.81046 
3388 2 3.67596 1.98087 -5.40036 
3433 2 3.7413 2.76488 -5.05528 
194 1 4.77625 2.1376 -5.69906 
2147 1 5.60925 2.23308 -4.79595 
3414 2 6.04849 1.77557 -5.89996 
3298 2 5.9036 2.51417 -5.80077 
2317 1 6.87428 2.83408 -5.25953 
806 1 6.3253 2.4957 -4.61101 
1169 1 6.58161 3.55125 -4.85413 
1229 1 -6.56903 3.28457 -5.37773 
443 1 -6.45694 4.09835 -4.53149 
3456 2 -4.87935 3.10691 -4.78947 
1691 1 -5.0377 3.46897 -5.88195 
35 1 -5.75344 3.05174 -5.5944 
561 1 -4.77315 4.43794 -5.71016 
829 1 -5.8233 4.06281 -5.1954 
59 1 -3.93345 4.16919 -5.46358 
1344 1 -3.86055 3.37617 -5.73181 
2977 2 -2.72875 3.93881 -5.20722 
686 1 -1.75712 3.8384 -6.13893 
448 1 -1.77004 4.59953 -4.86122 
1638 1 -1.42084 3.98581 -5.22937 
3378 2 -0.280067 3.68122 -5.80776 
867 1 0.0848727 3.40782 -4.76075 
3392 2 -0.626087 4.3929 -5.7521 
673 1 -0.672424 3.21911 -4.89415 
1978 1 1.15164 2.81903 -5.62974 
301 1 1.48501 4.64444 -5.19633 
1505 1 0.375096 4.28596 -4.98965 
371 1 1.82897 3.47104 -5.31533 
84 1 2.23527 4.37849 -4.71111 
1066 1 2.66039 3.89603 -5.37991 
2894 2 3.60179 3.57192 -4.82093 
221 1 4.63401 4.02551 -5.12646 
2814 2 3.41892 4.43929 -4.73006 
2917 2 5.7386 3.24623 -5.51494 
2927 2 5.60442 4.06419 -5.6194 
2297 1 -6.99311 4.10505 -5.02267 
2707 1 6.91145 3.31091 -6.0782 
440 1 6.48877 4.51941 -4.70462 
3147 2 -6.59452 5.46766 -5.56995 
29 1 -6.00063 4.87692 -4.85313 
1341 1 -7.02283 4.88781 -4.67916 
942 1 -5.38037 5.46612 -5.22047 
587 1 -4.35545 5.19211 -5.32956 
507 1 -3.69957 5.74501 -5.51948 
992 1 -3.68132 3.47666 -4.66182 
2865 2 -2.86673 4.59527 -4.91573 
3458 2 -2.70331 5.3091 -4.79547 
341 1 -1.78551 5.29357 -5.27435 
3207 2 -0.534562 5.10057 -5.3848 
1775 1 -1.58714 5.63687 -4.47987 
2208 1 -0.0362661 5.06403 -4.28386 
1924 1 0.619165 4.60954 -5.78186 
1261 1 2.27658 5.24039 -5.33883 
1848 1 1.61754 5.5807 -4.76626 
899 1 2.57897 4.56276 -5.80832 
696 1 2.6816 5.85461 -5.86651 
2379 1 3.54462 5.64052 -5.53023 
2092 1 4.93531 5.51202 -4.14065 
1515 1 4.54843 5.06725 -4.85865 
2088 1 4.68985 5.47953 -5.98404 
3257 2 5.61668 4.74586 -5.41132 
2971 2 5.52141 5.61429 -5.24688 
1667 1 6.70745 5.08763 -5.54838 
3330 2 -6.80842 6.21812 -5.68794 
2747 2 -6.99827 6.96409 -5.47502 
1872 1 -6.07397 5.94262 -4.72003 
2462 1 -5.65953 -7.16038 -5.08639 
2033 1 -5.25417 6.32651 -5.12076 
1391 1 -4.49908 6.1255 -4.98608 
601 1 -3.12213 6.58737 -5.83897 
1481 1 -3.96973 5.60818 -4.47279 
1733 1 -4.69943 7.02607 -4.88897 
2446 1 -2.24037 6.3947 -5.38818 
1435 1 -2.24269 -7.07637 -4.71069 
1643 1 -2.56064 7.14026 -5.4321 
2988 2 -3.07797 5.97337 -4.57389 
1499 1 -1.91526 6.52167 -4.62243 
3455 2 -0.948462 6.58203 -5.09287 
3018 2 -0.795224 5.87848 -5.47848 
586 1 0.326965 5.72628 -5.79361 
401 1 0.381008 6.34909 -5.10451 
2564 1 -0.122045 6.7505 -4.50489 
2429 1 1.49801 6.98214 -4.31733 
2669 1 1.11717 6.26164 -4.69615 
849 1 2.17499 6.14797 -4.93238 
799 1 2.08174 6.94482 -5.0331 
1935 1 2.90415 6.59295 -5.55265 
2305 1 3.78462 6.35712 -5.32135 
189 1 4.6314 6.3473 -5.86082 
798 1 3.80236 7.07374 -4.79248 
244 1 4.29815 5.82493 -4.99174 
3290 2 5.18708 6.88429 -4.77295 
2926 2 5.54835 6.18987 -4.9125 
1871 1 6.67152 7.1251 -4.7946 
1965 1 6.56298 5.91578 -5.45707 
698 1 -6.51907 -7.1003 -4.14466 
2507 1 -6.64693 -5.83949 -4.18827 
3228 2 -5.72204 -6.68911 -3.59468 
3469 2 -5.36843 6.92285 -3.82302 
3413 2 -3.37429 -6.06931 -4.0178 
2835 2 -3.26998 -6.76188 -4.29367 
2248 1 -4.46228 -6.73339 -4.0488 
683 1 -4.48688 -5.93034 -3.84794 
2496 1 -2.32141 -6.29624 -3.30411 
1585 1 -1.69318 -6.3314 -3.81555 
2052 1 -0.779958 -6.3083 -3.66582 
1107 1 0.106446 -6.28929 -4.33565 
202 1 -0.702907 -5.37357 -2.83083 
486 1 -0.463392 -7.04163 -4.11676 
2491 1 -0.50476 -5.6443 -4.07033 
3056 2 0.511992 -7.10702 -3.3117 
3236 2 0.380945 -6.31599 -3.29757 
15 1 0.876518 -6.23047 -4.34709 
224 1 0.670938 -7.15833 -4.61893 
3303 2 2.89355 -6.97774 -4.05777 
2136 1 3.82441 -6.15918 -4.25588 
709 1 4.30477 6.43671 -4.28314 
281 1 4.07831 -7.00955 -3.99375 
2825 2 5.05736 -6.72155 -4.55581 
938 1 5.2673 -5.82162 -3.14941 
997 1 5.87444 -6.32868 -3.87289 
1461 1 -7.17454 -6.69067 -4.13589 
929 1 -6.99807 6.62338 -4.51283 
316 1 -6.24922 -4.57238 -5.10838 
2659 1 6.94524 -4.94788 -3.80372 
844 1 -6.64786 -4.69744 -4.18127 
1184 1 -4.90541 -6.43841 -4.62072 
1994 1 -5.50125 -4.62219 -4.36006 
3375 2 -5.5395 -5.80831 -3.47138 
2896 2 -5.95683 -5.15426 -3.42451 
1187 1 -4.79083 -4.89732 -3.99594 
472 1 -5.44429 -5.52082 -4.51856 
3562 2 -3.45491 -5.3076 -4.05297 
314 1 -2.37303 -5.39541 -4.1673 
520 1 -2.14924 -4.61094 -3.6649 
2102 1 -2.40766 -5.49106 -3.45068 
127 1 -1.3614 -5.55309 -3.4511 
1846 1 -1.33541 -4.66499 -3.39997 
2038 1 -0.597111 -4.91097 -3.71306 
2632 1 1.34492 -5.51689 -4.44896 
1799 1 0.433233 -5.15004 -4.16655 
1160 1 1.54477 -4.45698 -4.23924 
1683 1 1.32933 -4.96666 -3.38276 
1130 1 1.42198 -6.00996 -3.4171 
2918 2 2.76778 -6.26522 -3.89618 
3379 2 2.43714 -5.55674 -3.772 
2566 1 3.78671 -5.28679 -4.04816 
168 1 4.60539 -5.29122 -3.24212 
3340 2 4.88704 -5.92124 -4.39409 
3244 2 4.78364 -4.90948 -4.25646 
655 1 5.99571 -5.27645 -3.60488 
451 1 5.90763 -4.74752 -4.22718 
98 1 6.74123 -5.90094 -3.94255 
1595 1 6.40132 -4.14389 -3.81763 
1031 1 -6.99993 -3.93587 -3.87213 
1182 1 -6.32942 -3.96156 -4.65171 
843 1 -4.89067 -4.18043 -3.53973 
977 1 -4.77186 -4.17839 -4.67554 
1361 1 -5.69056 -3.75673 -4.21314 
1071 1 -5.17034 -2.68062 -3.30273 
3536 2 -3.65983 -4.51863 -4.12945 
3376 2 -3.89027 -3.8346 -3.90201 
2044 1 -2.75187 -3.76569 -4.1 
2511 1 -2.91311 -2.83015 -3.98416 
3198 2 -1.4369 -4.17736 -4.40098 
2916 2 -1.70323 -3.38581 -4.39393 
180 1 -0.599278 -3.24143 -3.69907 
2105 1 -0.574703 -3.74133 -4.6765 
1380 1 -0.777886 -4.02791 -3.56984 
1552 1 -0.00492414 -4.27375 -4.26943 
1422 1 1.23522 -3.26756 -4.09115 
1582 1 0.867665 -4.09274 -3.8385 
2558 1 2.5461 -4.47482 -4.53638 
3015 2 2.003 -3.88103 -3.39187 
984 1 2.94886 -3.53 -3.96047 
1611 1 2.20489 -3.58906 -4.41356 
3230 2 2.41737 -4.82364 -3.43964 
2857 2 4.43347 -4.02215 -4.14838 
3353 2 4.29433 -3.23231 -3.83856 
701 1 3.3714 -4.41223 -4.18628 
566 1 2.68503 -2.39495 -4.02939 
535 1 5.44402 -3.90541 -3.67962 
1372 1 5.73296 -3.81029 -4.58245 
3173 2 6.72752 -3.6715 -4.59794 
1444 1 -6.66338 -3.15836 -4.19963 
753 1 6.99825 -3.58791 -3.20742 
1006 1 -7.00194 -2.78771 -4.83427 
1151 1 -6.26352 -2.15222 -3.82697 
1483 1 -7.08103 -1.54999 -4.37462 
1449 1 -5.77919 -2.91343 -3.89523 
1392 1 -5.15192 -2.22263 -4.16566 
2674 1 -4.90231 -3.41587 -3.96959 
3083 2 -3.99735 -3.01601 -3.66811 
3229 2 -4.23886 -2.23497 -3.46402 
228 1 -2.90215 -2.41956 -5.26184 
2241 1 -3.28621 -2.10574 -4.34829 
2139 1 -0.698787 -2.60934 -4.52679 
2766 2 -1.92834 -2.53484 -4.32729 
2400 1 -1.1315 -2.33387 -3.39163 
2260 1 -0.106968 -2.4067 -3.67408 
1028 1 0.250003 -3.28803 -3.85637 
1239 1 1.04355 -2.36354 -3.84918 
749 1 1.8084 -2.74226 -4.51059 
1653 1 2.84031 -1.80984 -3.2179 
1967 1 3.08767 -2.78669 -3.28392 
1237 1 2.00156 -1.79118 -4.15137 
3320 2 2.00541 -3.10845 -3.27854 
3134 2 4.16415 -2.47498 -3.68183 
2914 2 3.92017 -1.71872 -3.61378 
1226 1 5.37445 -3.01061 -4.13907 
721 1 6.07909 -3.25406 -3.46103 
960 1 5.36479 -2.72747 -3.19051 
1428 1 6.31425 -2.37237 -3.22721 
2132 1 -7.06605 -2.27827 -3.99534 
2858 2 6.42842 -2.83319 -4.37214 
2351 1 7.04698 -2.84073 -3.40885 
2126 1 -6.6254 -1.29029 -3.76343 
808 1 -5.99083 -0.93525 -3.27923 
1316 1 -5.29123 -1.1679 -4.00181 
1953 1 -4.93869 -0.498146 -4.55001 
2302 1 -4.71305 -1.61126 -4.46191 
2465 1 -3.00019 -1.51237 -4.87869 
3447 2 -4.44231 -1.43879 -3.36968 
262 1 -3.35388 -1.27719 -3.61473 
2748 2 -2.19975 -1.79824 -4.18369 
2789 2 -2.23613 -0.989291 -3.90018 
1491 1 -1.16956 -1.76496 -4.31222 
393 1 -0.943957 -0.877921 -3.55248 
904 1 -0.438691 -1.47987 -3.5723 
3585 2 -0.236326 -0.561772 -4.63402 
2237 1 0.659356 -1.34081 -3.70017 
2411 1 1.22542 -1.31092 -4.46087 
665 1 1.59789 -0.489781 -4.25779 
1300 1 2.8025 -0.592533 -4.45059 
482 1 2.22067 -1.01789 -3.96042 
1890 1 2.76816 -1.06332 -3.16879 
3483 2 3.73846 -0.939899 -3.5354 
873 1 5.03779 -2.24215 -4.52316 
2233 1 5.71197 -1.74024 -3.21859 
3116 2 6.2143 -2.01019 -4.29239 
2856 2 6.13453 -1.24992 -4.15571 
1548 1 6.89761 -1.74798 -3.34425 
1343 1 7.04762 -0.69372 -3.63222 
2311 1 -6.6774 -0.237028 -3.57759 
1458 1 -5.64813 -0.373384 -3.83232 
1790 1 -4.25511 -0.429418 -4.01472 
2448 1 -5.69759 0.505674 -3.59745 
521 1 -4.27453 0.857304 -3.88683 
412 1 -3.89128 -1.25992 -4.36889 
1579 1 -3.54169 -0.367512 -3.39438 
2436 1 -3.73731 0.338584 -3.8136 
3490 2 -2.445 -0.254581 -3.66842 
3588 2 -2.68311 0.483293 -3.49215 
954 1 -1.27186 -0.631398 -4.26678 
1064 1 -1.94973 0.792926 -4.45689 
3500 2 -0.315508 0.199548 -4.31027 
1777 1 0.209279 -0.0726998 -3.29936 
3555 2 -0.438629 0.959524 -4.33286 
2298 1 0.814141 -0.529021 -3.8894 
75 1 0.993463 0.389746 -3.80024 
1065 1 0.693861 0.742741 -4.59154 
2187 1 1.72871 0.262825 -4.04926 
2407 1 2.77278 0.293176 -4.62246 
414 1 2.47587 0.227708 -3.90088 
3305 2 3.57924 -0.19735 -3.46194 
167 1 3.64884 0.127485 -4.57741 
3394 2 3.4447 0.576753 -3.41604 
2819 2 5.65095 0.136913 -3.98861 
1328 1 4.44911 -0.161126 -4.14821 
1325 1 4.84588 -1.1918 -3.8268 
1999 1 6.58595 0.0413215 -3.23839 
2902 2 5.80468 -0.579353 -4.10758 
2054 1 6.83715 0.155772 -4.15663 
1791 1 -6.26716 1.21394 -2.73182 
3263 2 -6.81034 1.33637 -4.68538 
928 1 -6.04602 1.23354 -3.62711 
3260 2 -6.82928 2.06851 -4.41453 
1910 1 -5.0294 0.210657 -4.22888 
731 1 -4.86673 1.57159 -4.13598 
697 1 -3.52373 1.11279 -4.50388 
1148 1 -4.06512 1.80615 -4.01161 
1198 1 -2.73341 1.08788 -4.92461 
3120 2 -2.70408 1.285 -3.66951 
2508 1 -3.13924 0.256255 -4.68215 
1812 1 -1.65497 1.26142 -3.69513 
2950 2 -0.879181 1.69565 -4.0729 
1562 1 0.142487 1.82882 -3.4814 
2673 1 0.561488 1.55302 -4.28564 
3443 2 1.6669 1.32306 -4.87204 
1432 1 1.19735 1.35329 -3.75077 
1375 1 1.92549 1.69832 -3.53892 
785 1 2.41952 1.29669 -4.1905 
2575 1 2.48979 2.04875 -5.26378 
1520 1 3.91848 1.79147 -4.06621 
613 1 3.04473 1.06914 -4.70024 
925 1 4.51271 1.45123 -3.36511 
504 1 4.43734 0.559916 -3.8095 
2135 1 3.01026 2.00717 -4.40129 
3209 2 5.47053 0.970289 -3.96406 
1078 1 -6.96725 0.703816 -3.39884 
1282 1 5.91994 1.30868 -5.02559 
1913 1 6.46431 1.6312 -4.40144 
3033 2 -6.92791 2.84161 -4.36558 
750 1 -6.17797 2.08418 -3.57352 
1060 1 -5.79139 3.00271 -3.98426 
2383 1 -5.40662 2.26067 -3.90591 
2490 1 -2.97929 2.76173 -4.30863 
2077 1 -3.8143 2.42757 -4.23962 
2395 1 -3.05444 1.97665 -4.7388 
2932 2 -3.22919 2.74301 -3.33389 
286 1 -4.51787 2.58674 -3.6188 
1367 1 -2.31012 2.13369 -4.25869 
1706 1 -1.83483 2.2009 -3.49916 
1296 1 -1.87249 2.88955 -2.91368 
3372 2 -2.98208 2.0012 -3.48114 
3196 2 -0.916141 2.54035 -3.90216 
2860 2 -0.860082 3.2534 -3.84437 
1993 1 0.18797 3.30669 -3.90471 
46 1 0.0692891 1.70241 -5.02054 
14 1 1.06612 3.16774 -3.20335 
1098 1 0.284793 2.38085 -4.11082 
2174 1 1.03504 2.27841 -3.36787 
1466 1 2.39146 2.31047 -4.00884 
1574 1 3.2095 2.97391 -3.96765 
1923 1 2.50051 3.5766 -4.35916 