ITEM: TIMESTEP
47600
ITEM: NUMBER OF ATOMS
3594
ITEM: BOX BOUNDS pp pp pp
-7.1955890978901760e+00 7.1955890978901760e+00
-7.1955890978901760e+00 7.1955890978901760e+00
-7.1955890978901760e+00 7.1955890978901760e+00
ITEM: ATOMS id type x y z 
1399 1 -6.57564 -5.20521 -5.94715 
239 1 -5.63927 7.10244 -7.0944 
1410 1 -6.84236 -6.06042 -6.43789 
335 1 -6.13463 -6.71714 -6.61656 
3477 2 -4.97384 -6.7693 -5.76481 
2018 1 -4.48977 -6.37668 -6.77005 
2248 1 -3.86832 -6.39507 -5.98091 
2944 2 -2.62677 -6.89246 -6.88652 
3574 2 -3.03955 -6.17528 -6.58373 
1893 1 -1.73201 -7.182 -6.5015 
2083 1 -1.08478 -6.62598 -6.30808 
1308 1 -1.52899 -5.77469 -6.22437 
2630 1 -1.82037 -6.35479 -6.73821 
533 1 0.175971 -5.66365 -6.50095 
1385 1 -0.00978157 -6.5833 -6.46445 
1323 1 0.505014 7.19037 -6.85002 
2246 1 2.06489 -6.26102 -6.69612 
774 1 1.81782 -5.52073 -5.76213 
2492 1 0.31163 -6.13547 -7.18319 
1425 1 2.05043 -6.66231 -5.95093 
3442 2 3.17362 -6.20747 -6.29949 
748 1 1.82226 -7.08199 -6.84641 
3587 2 3.32938 -6.90765 -6.43244 
932 1 4.47018 -6.69504 -5.83116 
1970 1 4.56254 -6.67977 -6.66668 
589 1 4.13241 -5.9294 -6.42196 
3208 2 5.49176 -6.20822 -7.07916 
2787 2 5.69714 -7.0883 -7.10292 
13 1 6.13936 -6.05338 -6.12944 
2200 1 6.5164 -5.9509 7.15498 
572 1 7.13465 -4.78867 -6.19499 
1654 1 -6.198 -4.39186 -6.23855 
3029 2 -7.07834 -5.00818 7.01843 
2546 1 -5.59027 -6.36069 -7.11135 
1473 1 -6.03826 -5.53272 -6.83952 
937 1 -5.68276 -4.85461 -6.97761 
2702 1 -4.34396 -4.32772 -5.89471 
2301 1 -4.43074 -4.80939 -6.58692 
1020 1 -5.10275 -5.58401 -6.94039 
3061 2 -3.29105 -4.74591 -6.26364 
2981 2 -3.01732 -5.44499 -6.32538 
2397 1 -2.85407 -4.56832 7.11861 
1730 1 -1.99309 -5.28706 -6.95867 
3484 2 -0.892265 -5.00199 -6.86673 
842 1 -2.08709 -5.19083 -5.8538 
1122 1 0.797271 -5.03706 -6.53139 
1587 1 1.36202 -5.70393 -6.70001 
2628 1 2.61333 -5.84997 6.7862 
313 1 2.45816 -6.74354 -7.15808 
1836 1 2.47484 -4.50101 7.18323 
2957 2 2.99006 -5.47771 -5.86817 
26 1 3.38782 -4.82382 -7.03919 
893 1 3.96494 -5.12313 -6.27764 
2256 1 4.14655 -4.93129 7.02653 
2812 2 5.14467 -5.46299 -6.83693 
3212 2 4.93601 -4.75375 -6.73536 
1345 1 6.7957 -5.55017 -6.37492 
2727 1 -6.80378 -4.12394 -5.74953 
639 1 6.19065 -5.21516 -7.02965 
1273 1 6.0991 -5.0372 -6.1322 
1918 1 6.267 -4.38165 -6.95938 
2975 2 -6.99462 -4.17697 -7.18908 
2015 1 -6.60306 -3.47822 -6.07811 
1483 1 -5.71657 -3.6029 -6.53464 
1794 1 -5.98377 -4.03184 7.1226 
1640 1 -5.20211 -4.32147 -6.61907 
1835 1 -4.87871 -3.69813 -6.14718 
2516 1 -4.50291 -3.97964 -5.06073 
3041 2 -3.2141 -4.0249 -6.08428 
139 1 -4.16345 -3.86063 -6.74201 
2869 2 -3.36105 -3.31162 -5.85784 
1822 1 -2.12817 -4.2834 7.12218 
890 1 -2.13864 -4.53143 -6.38686 
2057 1 -3.18944 -3.82466 -7.09754 
1629 1 -2.34409 -3.42067 -6.50597 
2808 2 -1.1555 -4.16631 -6.78428 
3332 2 -1.21342 -3.37177 -6.58193 
607 1 -0.951908 -3.54586 -5.30731 
1347 1 -0.203117 -3.35441 -7.035 
1313 1 -0.393953 -3.85276 -5.99068 
1859 1 0.198057 -3.22459 -6.19696 
1644 1 1.08056 -3.15119 -6.10664 
2520 1 0.772616 -4.03813 -6.45243 
1997 1 1.8903 -3.98397 -6.61179 
779 1 2.24894 -5.4559 -6.9314 
1648 1 2.98862 -3.78462 -6.73612 
2431 1 4.04932 -3.73376 -6.95721 
1527 1 3.79985 -3.24111 -6.18732 
2539 1 3.73775 -4.43926 -6.41275 
3266 2 5.06195 -4.03636 -6.29819 
2767 2 5.04219 -3.29603 -6.12767 
3126 2 -7.08959 -3.4273 -7.07214 
1029 1 5.42515 -2.82807 -7.09065 
1597 1 6.00629 -3.54382 -6.9087 
2360 1 -5.82896 -2.87088 -6.5506 
519 1 -6.18836 -2.86466 7.03713 
90 1 -4.91632 -2.94781 -6.3545 
18 1 -4.28014 -2.1511 -6.44723 
2381 1 -4.19022 -2.86967 -6.86839 
911 1 -2.9131 -2.79104 -6.96376 
743 1 -2.38786 -2.46439 -6.25407 
1928 1 -2.41929 -1.74847 -6.79798 
520 1 -1.95803 -3.39554 -5.77331 
2070 1 -2.04473 -2.43536 -7.17993 
3234 2 -1.26829 -2.53166 -6.40541 
3105 2 -1.38894 -1.70488 -6.21471 
1489 1 -0.256301 -2.27684 -7.15784 
2511 1 -0.802932 -2.37273 -4.94213 
541 1 -0.524378 -2.7744 -5.67563 
2804 2 0.825227 -2.16439 -7.03394 
3347 2 1.0413 -2.95114 -7.14444 
2050 1 2.64584 -1.9582 -6.58814 
190 1 3.0897 -2.73747 -6.67451 
1897 1 2.30965 -3.09944 -6.93242 
675 1 4.53956 -1.38521 -7.18929 
3550 2 4.85558 -2.45726 -6.02035 
2415 1 6.1023 -2.25567 -6.46595 
3087 2 7.07335 -2.77504 -6.7606 
1051 1 6.28561 -2.34725 6.8123 
923 1 -6.43099 -1.12427 -6.958 
936 1 -5.08381 -2.06796 -6.26822 
2892 2 -5.34538 -0.991196 -7.0914 
2320 1 -4.15202 -1.32619 -6.56294 
571 1 -3.22805 -2.03299 -6.91732 
2601 1 -3.3142 -1.17441 -6.69923 
323 1 -2.34662 -0.96048 -7.11135 
2699 1 -2.44318 -1.82108 -5.77298 
2013 1 -2.80071 -1.02608 -5.94889 
3200 2 -1.67296 -0.950076 -6.23085 
154 1 -0.355235 -1.46099 -6.6902 
1485 1 -0.614613 -0.579572 -6.17722 
1374 1 -0.302898 -1.13933 6.82943 
3151 2 0.872424 -1.36199 -6.91166 
1695 1 1.6045 -1.92103 -6.24621 
1418 1 2.04829 -1.58658 -7.04014 
309 1 3.8395 -2.09164 -6.81703 
1843 1 2.30842 -1.20756 -6.24205 
1981 1 3.80266 -1.16972 -6.69817 
1876 1 3.25358 -1.36763 -6.01609 
1824 1 4.30953 -0.272435 -6.73022 
453 1 5.39071 -1.94423 -7.01769 
2072 1 5.97411 -2.42164 -5.61868 
2122 1 5.92235 -0.448536 -7.13245 
303 1 5.59851 -1.39375 -6.20054 
2972 2 4.55703 -1.73118 -5.96466 
2231 1 5.72079 -0.714823 -5.51309 
2840 2 7.18452 -1.86433 -6.59731 
2797 2 6.64831 -1.32388 -6.40649 
2617 1 -6.81298 -0.276425 -6.29275 
1698 1 -6.87704 0.332199 -6.92148 
37 1 6.71056 -0.174114 7.0709 
3097 2 -5.60829 0.194744 -6.77035 
3360 2 -5.65625 -0.513049 -6.67063 
1001 1 -4.16696 -0.181157 -6.4741 
408 1 -3.5538 0.65419 -6.15868 
2326 1 -3.37825 -0.366338 -6.43214 
547 1 -4.32624 -0.865096 -7.18181 
1772 1 -2.84746 -0.0307367 -5.63511 
2081 1 -2.51818 0.60162 -6.72407 
1255 1 -2.53131 -0.191907 -6.6638 
2390 1 -1.66013 0.315536 -7.01007 
2796 2 -1.81663 -0.176311 -5.85595 
502 1 -0.850889 0.341543 -6.52027 
343 1 -1.63407 1.10455 -6.68343 
3088 2 0.445489 -0.767036 -6.74595 
3311 2 0.270618 -0.0526064 -6.73966 
1661 1 -0.644107 1.24524 -7.07104 
1708 1 1.51784 -1.03754 -6.15261 
2712 1 1.36833 0.0421065 -7.01843 
308 1 2.16663 -0.21768 -6.20449 
2960 2 2.58553 0.207625 -7.02218 
867 1 1.43508 0.221117 -6.18245 
2730 1 3.57835 0.25826 -6.40272 
1218 1 3.26563 -0.473664 -6.20465 
2418 1 5.02201 -0.232728 -7.07375 
312 1 5.77263 0.731839 -7.01849 
3135 2 6.49666 -0.371959 -6.30328 
3038 2 6.4297 0.393948 -6.10609 
3007 2 -5.89805 1.61918 -6.66637 
2037 1 -7.02187 2.04181 -6.01989 
2318 1 -4.47153 0.539996 -6.33671 
3127 2 -5.84706 0.949261 -6.68157 
305 1 -5.09408 1.48839 -5.77278 
1154 1 -4.68558 1.17379 -6.94186 
1232 1 -4.13402 1.43329 -6.11098 
1525 1 -1.58085 1.86795 -6.49252 
2275 1 -2.89399 1.25757 -6.06786 
1057 1 -1.07713 2.24838 -5.69813 
1971 1 -0.82223 2.18466 -6.75958 
994 1 -1.0183 1.13207 -5.97877 
2928 2 0.301717 0.700671 -6.36254 
3078 2 -0.022644 1.48877 -6.22819 
497 1 1.05937 1.44111 -5.48061 
855 1 1.13168 1.80413 -6.25193 
3459 2 2.63468 0.926775 -6.83565 
805 1 3.44241 1.12965 -6.12746 
795 1 4.15132 0.726911 -6.61992 
591 1 4.70065 1.38407 -6.26896 
199 1 5.0054 0.349058 -6.38314 
478 1 6.21955 1.4999 7.1663 
2066 1 5.79518 1.62349 -6.57233 
817 1 6.94107 2.11839 -6.67021 
3060 2 6.42 1.1307 -5.89244 
2386 1 7.13657 1.31332 -6.81505 
3414 2 6.19868 2.03588 -5.5973 
718 1 -6.92004 0.927189 -6.24817 
3140 2 -6.08554 2.45566 -6.49193 
3465 2 -6.40841 3.15096 -6.32959 
1288 1 -4.62117 2.08216 -6.41587 
1691 1 -4.78586 3.21375 -5.95828 
565 1 -4.0776 2.72119 -5.95592 
3093 2 -3.87218 2.49377 -7.15599 
1265 1 -2.43658 1.53079 -6.75786 
2694 1 -2.80787 3.22399 7.18554 
686 1 -2.82948 2.33941 -6.48864 
2042 1 -1.92222 2.81438 -6.48325 
287 1 -1.13633 3.05304 -6.57826 
1053 1 -1.36327 3.00037 -5.81973 
3444 2 0.0948226 2.18252 -6.00727 
2813 2 -0.0937554 2.93887 -5.90563 
1773 1 0.892436 2.60594 -6.86759 
1848 1 1.0704 2.61961 -5.96041 
725 1 1.12953 3.59847 7.04701 
3393 2 2.4004 1.62361 -6.90266 
3417 2 2.1891 2.29014 -6.70772 
2261 1 2.99974 3.2559 -5.85937 
171 1 3.93776 1.82049 -6.3936 
1677 1 4.30117 2.62567 -6.13544 
2530 1 3.576 2.89716 -6.50476 
1516 1 3.00581 3.33475 -6.96831 
1414 1 5.18718 2.2128 -6.39086 
2338 1 5.53085 2.89859 7.19398 
2724 1 7.06635 2.96934 -6.89846 
2061 1 6.1193 2.44744 -6.83822 
1185 1 6.98719 2.97344 -5.98684 
625 1 -6.79518 2.17846 7.15126 
2736 2 -6.42951 3.82446 -5.9694 
2594 1 -5.54323 4.46988 -6.92135 
3238 2 -6.56914 4.62477 -6.02122 
964 1 -5.27077 3.78787 -6.50439 
2783 2 -3.82644 3.24115 -7.05992 
3408 2 -4.1539 3.82975 -6.77827 
1512 1 -3.5743 4.69281 -5.85841 
341 1 -2.78032 4.2379 -6.44129 
966 1 -3.28597 4.86063 -6.9118 
2229 1 -3.38661 3.84848 -5.9843 
1098 1 -2.39208 3.50068 -6.37205 
673 1 -1.54433 3.86377 -6.39685 
2524 1 -1.91507 4.6479 -6.19745 
2839 2 -2.00365 4.39424 6.95915 
3378 2 -0.38366 3.75922 -5.78764 
2675 1 1.06142 4.60937 -7.05248 
2271 1 0.345793 3.34154 -6.93967 
1932 1 0.882672 3.40987 -6.3373 
1639 1 0.593992 4.08721 -5.86068 
3466 2 1.97121 3.72499 -6.35231 
3478 2 1.98066 2.97425 -6.61595 
105 1 1.73592 4.17221 6.67063 
1978 1 3.01072 4.07465 -6.72248 
1068 1 2.83655 4.8674 -6.24373 
3551 2 3.96226 3.92765 -6.93241 
2765 2 4.25497 3.34732 7.13473 
2142 1 4.90704 3.15426 -6.42055 
1965 1 4.7685 4.11731 -6.22896 
339 1 5.46275 4.35866 -6.59096 
2597 1 5.99421 3.59806 -6.58447 
2327 1 6.88298 3.78635 -6.79382 
34 1 6.77741 3.81656 -5.99155 
1727 1 -6.24528 4.97188 -7.07661 
3045 2 -6.66104 5.44431 -5.92151 
896 1 -5.23071 5.25749 6.91238 
754 1 -5.32246 4.75438 -6.12359 
3471 2 -4.60762 5.33094 -6.59782 
2440 1 -5.65011 5.59155 -6.12931 
3411 2 -4.31885 4.57838 -6.67128 
1481 1 -3.75443 5.6486 7.19085 
1344 1 -2.64608 5.22501 -6.22894 
3454 2 -2.4206 5.98016 -6.96986 
1370 1 -1.88495 5.86612 -5.84503 
225 1 -1.49863 5.40571 -6.3366 
1663 1 0.408103 4.153 -6.83776 
1767 1 0.561592 5.03405 -5.90895 
215 1 -0.17481 4.66002 -6.79177 
3138 2 1.75807 4.5156 -6.41379 
282 1 0.472242 5.28432 -6.77819 
693 1 2.90744 3.84314 6.76072 
703 1 2.66051 5.64531 -6.68138 
3223 2 3.93082 4.70086 -6.92673 
3215 2 3.82757 5.37815 -6.62855 
1616 1 6.23848 4.63204 -6.36199 
1871 1 5.78811 5.47356 -6.31326 
865 1 4.80843 5.00182 -6.15403 
2701 1 7.03127 4.78975 -6.77646 
1341 1 6.62463 5.63526 -6.35918 
862 1 -6.78031 5.6854 -6.98544 
1117 1 -6.90497 -7.17009 -6.61561 
317 1 -6.51914 6.50541 -6.86994 
3150 2 -4.859 7.04931 -6.27181 
3463 2 -4.77501 6.22743 -6.56159 
2706 1 -5.90187 5.77423 -6.86386 
2446 1 -3.70444 6.50102 -7.02478 
601 1 -3.46459 6.54617 6.54643 
197 1 -2.81687 7.05499 -5.64326 
3268 2 -2.64437 6.67421 -6.86109 
1747 1 -0.841972 5.26533 -7.09535 
1984 1 -1.48215 6.44989 -6.58956 
1093 1 -0.721638 6.87645 -6.46325 
1643 1 -0.56352 5.92401 -6.68125 
1850 1 0.462588 6.14791 -6.6848 
2831 2 1.60603 5.40318 -6.19344 
2899 2 1.4149 6.25878 -6.10341 
255 1 1.82331 6.51994 -7.10838 
2627 1 1.10624 -6.68336 -6.97384 
849 1 2.53299 6.69004 -6.61338 
2048 1 2.9402 6.18912 -5.83182 
2790 2 3.89049 6.14927 -6.53623 
3569 2 3.622 6.87028 -6.75161 
1681 1 5.02498 5.83457 -6.74399 
452 1 5.66367 6.29035 -6.11446 
924 1 5.01454 6.8618 -6.15314 
2678 1 4.69194 6.85649 -7.07997 
829 1 6.60979 6.61839 -6.41868 
760 1 6.92264 -6.49937 -6.84183 
1263 1 -6.04313 -6.8491 -5.76259 
2747 2 7.19087 -6.67089 -5.48822 
695 1 -6.33404 -5.95532 -5.60475 
3520 2 -5.23599 -6.02669 -6.0281 
1291 1 -5.55989 -6.41569 -4.90059 
2533 1 -6.48339 -6.8315 -4.59328 
392 1 -3.47884 7.14023 -6.17798 
1149 1 -4.03304 -6.53851 -5.20854 
472 1 -4.2009 -5.48175 -6.11472 
2002 1 -2.96238 -6.52361 -5.5263 
2439 1 -2.4738 -6.12752 -4.61076 
1979 1 -2.19272 -6.89342 -5.04874 
1435 1 -2.07736 -6.62804 -5.87966 
3322 2 -1.23234 -5.94232 -5.04995 
3594 2 -1.12171 -6.78589 -5.23915 
2626 1 -0.662803 -5.80659 -6.08281 
245 1 -0.275719 -6.39422 -5.56881 
1422 1 -0.428234 -6.49753 -4.50397 
3128 2 1.09224 -6.5028 -5.72647 
2491 1 1.82191 -6.91405 -4.88103 
2978 2 1.17148 7.10602 -5.77805 
1416 1 2.74999 -6.66043 -5.22336 
1896 1 3.68268 -6.57598 -5.20136 
2469 1 3.65533 -6.07183 -4.23314 
522 1 5.85921 -7.19076 -5.72147 
916 1 5.26611 -6.52209 -5.90653 
2825 2 4.61234 -5.85918 -4.60268 
1985 1 5.74397 -6.36706 -5.15678 
3487 2 6.92909 -5.96349 -5.20312 
610 1 6.3584 -6.84561 -6.29592 
2137 1 -6.3764 -4.90406 -5.15654 
2721 1 -6.62678 -4.19734 -4.7752 
3416 2 -5.47361 -5.31015 -5.93693 
3325 2 -5.35283 -4.65755 -5.55887 
642 1 -4.77299 -4.55308 -4.50191 
683 1 -6.26343 -5.68713 -4.8223 
959 1 -4.28601 -4.86421 -5.17585 
2674 1 -4.48593 -5.57181 -5.31745 
833 1 -3.47439 -5.73351 -5.36504 
2549 1 -2.36219 -5.98399 -5.52765 
2262 1 -2.69213 -5.38605 -5.10651 
2176 1 -2.73111 -5.16066 -4.32629 
897 1 -1.26855 -5.09293 -5.73501 
3480 2 -1.56211 -5.34355 -4.69743 
2052 1 -0.719973 -4.54301 -5.28649 
786 1 -0.220098 -4.72721 -6.08379 
1050 1 -0.306963 -5.41308 -5.35489 
1931 1 -0.619801 -4.56092 -4.54368 
1442 1 1.6466 -4.74159 -6.31377 
2826 2 0.772377 -5.78151 -5.63409 
3068 2 0.798202 -4.97324 -5.45927 
1234 1 1.97907 -6.03589 -5.11704 
1575 1 2.97185 -5.73638 -4.83804 
984 1 1.87491 -4.91632 -4.99884 
1415 1 2.68945 -5.00105 -4.67684 
1160 1 3.46035 -4.41344 -4.92332 
1019 1 3.82997 -5.60946 -5.26771 
1211 1 4.08532 -4.74645 -5.52355 
98 1 4.73731 -5.67134 -5.73905 
1322 1 4.90039 -4.82578 -5.63396 
2659 1 5.90722 -5.87739 -4.3582 
451 1 5.56333 -5.46487 -5.59913 
2828 2 6.9125 -5.26822 -5.20132 
3010 2 6.87547 -4.61043 -5.00709 
2612 1 -6.26363 -3.01305 -4.45755 
2912 2 -5.64912 -3.88928 -5.32577 
1361 1 -5.07839 -3.73521 -4.30451 
88 1 -3.67962 -3.94729 -5.00853 
1140 1 -4.42678 -3.05698 -5.61103 
913 1 -2.47205 -4.44288 -5.42855 
484 1 -2.56709 -3.42177 -5.23923 
922 1 -1.49233 -4.16167 -5.66624 
2058 1 -0.649001 -3.79174 -4.68875 
2631 1 -1.44571 -2.79073 -5.33473 
2768 2 0.46219 -4.22112 -5.26173 
840 1 1.94796 -4.02587 -5.15063 
566 1 1.49787 -3.94538 -5.80509 
2933 2 2.62211 -4.82601 -5.8924 
3249 2 2.7996 -4.1015 -5.81258 
1945 1 3.34537 -3.41704 -4.86778 
1372 1 3.89318 -3.94523 -5.67796 
153 1 5.9694 -4.2806 -5.82004 
1364 1 4.60704 -3.748 -5.21845 
2306 1 5.31984 -4.27285 -5.12941 
346 1 6.28024 -3.16115 -5.97676 
3080 2 6.6898 -3.88325 -4.91637 
1373 1 6.64317 -3.87872 -6.21711 
148 1 -6.61429 -2.65267 -5.83473 
92 1 -6.68086 -3.36694 -5.0504 
1672 1 -6.82916 -1.8849 -5.55959 
2890 2 -5.71423 -2.29705 -5.20948 
2737 2 -5.589 -3.01451 -5.38609 
2661 1 -4.45521 -2.36502 -4.69252 
1445 1 -4.59425 -2.18836 -5.44393 
2844 2 -3.61333 -2.38201 -5.88418 
1087 1 -3.59662 -2.84487 -4.93324 
2605 1 -3.67524 -1.86701 -4.52833 
523 1 -3.02644 -3.18099 -4.35304 
965 1 -2.98314 -2.3836 -4.75889 
667 1 -1.0661 -1.32868 -4.08029 
1112 1 -2.48644 -2.54479 -5.37378 
527 1 -0.730428 -2.9346 -4.37293 
3227 2 0.380286 -3.50487 -5.06201 
3430 2 0.237349 -2.72953 -5.01599 
2600 1 1.83279 -2.81047 -6.30022 
400 1 1.54298 -3.05534 -5.28807 
2298 1 1.02321 -2.29196 -5.83478 
3014 2 2.64743 -3.15844 -5.64874 
2830 2 2.53499 -2.38557 -5.33547 
847 1 3.53508 -2.05479 -5.95733 
873 1 3.0774 -2.62771 -4.43921 
2645 1 3.54394 -1.17388 -5.10035 
1841 1 3.98757 -2.90002 -5.16201 
1911 1 3.53004 -2.09748 -5.04059 
2101 1 5.51646 -3.38214 -5.09574 
499 1 4.8634 -3.05712 -4.70352 
2126 1 7.12834 -3.21031 -5.65411 
2021 1 6.75083 -2.36995 -5.56254 
41 1 -5.97219 -2.06207 -6.3005 
2993 2 -6.12359 -0.818645 -4.71769 
2560 1 -5.75264 -1.37166 -6.01746 
874 1 -4.79415 -1.40662 -5.86074 
2974 2 -6.06659 -1.53211 -4.78997 
3543 2 -3.56583 -1.59553 -5.67072 
3256 2 -3.80748 -0.76321 -5.37978 
1064 1 -1.90573 -1.76243 -5.22308 
159 1 -3.06259 -0.65358 -4.60109 
2139 1 -0.995598 -1.64332 -4.91439 
2465 1 -1.47696 -0.908074 -4.8284 
2609 1 -0.669778 -0.941482 -5.35552 
460 1 -0.48015 -1.7171 -5.74439 
3354 2 0.206365 -2.00302 -4.63236 
1562 1 0.362202 -1.31184 -5.81888 
2187 1 0.0461988 -2.26376 -6.14469 
2673 1 1.10258 -1.59099 -5.49324 
2411 1 1.3696 -2.18596 -5.04106 
76 1 3.3321 -0.337175 -4.65721 
3356 2 2.29428 -1.71835 -5.31227 
3557 2 2.15948 -0.960985 -4.96365 
40 1 3.06911 -0.395084 -5.56944 
296 1 4.38457 -2.01235 -4.91763 
2995 2 4.40113 -1.00988 -5.8082 
304 1 5.83066 -1.58753 -5.3656 
1326 1 -7.15664 -1.49536 -4.92112 
802 1 7.05485 -0.796193 -4.32011 
2311 1 6.49195 -1.17677 -5.46241 
1883 1 -6.49877 -1.05462 -6.07793 
1224 1 -5.84568 -0.321587 -5.62759 
1369 1 -6.90716 -0.792747 -5.46765 
1781 1 -4.81479 -0.476567 -6.13578 
477 1 -5.12915 -0.723589 -5.26963 
1353 1 -5.0897 0.57299 -5.78431 
3144 2 -4.07747 -0.10372 -5.23905 
174 1 -2.18481 -0.160675 -4.79017 
1635 1 -2.4902 -0.809273 -5.22457 
1623 1 -3.035 0.229053 -4.71238 
2939 2 -1.79872 0.531748 -5.62075 
605 1 -1.25169 -0.312354 -4.09428 
603 1 -1.09116 -0.0314221 -5.02531 
2589 1 -0.467266 -0.0806896 -5.50947 
295 1 0.283768 -0.39711 -5.49349 
2080 1 1.04396 -0.496061 -5.7132 
75 1 1.04543 -0.921092 -4.92586 
892 1 0.953632 -0.352154 -4.13802 
3449 2 1.90535 -0.226705 -4.97868 
2150 1 3.00972 0.435917 -5.16934 
388 1 4.12958 -0.0438494 -4.43262 
3317 2 4.26688 -0.255164 -5.60095 
2848 2 4.18199 0.534155 -5.4808 
1362 1 5.46028 -0.271261 -6.20319 
504 1 5.34292 0.146699 -5.16663 
130 1 5.05933 -1.22766 -4.96614 
1340 1 6.07865 0.111895 -4.95411 
1548 1 6.64756 -0.49315 -5.06846 
556 1 6.36142 0.803728 -4.82939 
668 1 -7.03642 1.23464 -5.36353 
1446 1 -6.48015 0.290746 -5.75257 
50 1 -5.87017 1.03037 -5.60401 
561 1 -5.46188 0.457133 -4.99765 
2108 1 -3.15866 0.706283 -5.4857 
2861 2 -4.19629 0.70527 -5.0665 
3062 2 -4.32781 1.52167 -5.03201 
2241 1 -3.18562 1.43665 -5.03872 
330 1 -2.4784 0.80342 -4.57005 
3117 2 -2.24067 2.12209 -5.53413 
2846 2 -2.03972 1.38942 -5.45861 
1517 1 -1.05633 1.25787 -4.87421 
14 1 -0.453389 1.64709 -5.23269 
2647 1 -0.538215 0.663911 -5.33934 
84 1 0.568091 1.12186 -4.46101 
2713 1 0.164531 1.93471 -4.80799 
324 1 0.165746 0.890039 -5.2412 
1998 1 2.09276 0.958601 -5.99444 
904 1 0.889946 0.580067 -5.60129 
941 1 3.13992 2.18259 -6.09649 
3383 2 1.8526 0.636738 -4.93653 
110 1 2.67112 0.418749 -5.88572 
371 1 1.82696 1.77942 -5.73812 
441 1 2.5916 1.95082 -4.93235 
1368 1 2.69983 1.44011 -5.73221 
3364 2 4.16356 1.28866 -5.23407 
3388 2 3.83822 1.96844 -5.27533 
2074 1 5.44962 1.32562 -5.11802 
1574 1 4.93562 2.06999 -5.49061 
2087 1 5.2248 0.975675 -5.87778 
194 1 5.6173 2.47154 -4.74327 
1472 1 7.13857 0.20268 -5.26282 
2276 1 6.07008 1.56733 -4.54446 
1607 1 -6.13782 1.82967 -5.46109 
1238 1 -6.35721 2.79912 -5.2875 
1336 1 -5.2637 2.48787 -5.79643 
2576 1 -5.70363 3.16673 -5.40122 
443 1 -5.41868 1.33634 -4.83213 
2396 1 -5.47902 2.35768 -4.88572 
433 1 -3.39267 1.98588 -5.96567 
2466 1 -3.32729 3.01268 -5.90621 
2845 2 -4.3666 2.31404 -4.83158 
2077 1 -4.18109 3.68625 -5.54846 
803 1 -3.29535 2.47776 -5.19732 
28 1 -2.70129 1.75822 -4.42567 
2945 2 -2.43309 2.99244 -5.3181 
2977 2 -2.41253 3.77389 -5.23237 
757 1 -1.59023 3.02492 -4.67812 
823 1 -1.35385 2.23503 -4.73039 
177 1 -1.56499 3.91251 -4.32502 
1993 1 -0.565099 2.62082 -4.96566 
46 1 -0.773763 3.44982 -4.65297 
1505 1 0.162099 2.88146 -4.59339 
1249 1 0.666791 3.41623 -5.23007 
1924 1 0.83673 2.34541 -5.11255 
1056 1 1.82021 2.64537 -5.40012 
301 1 1.48493 3.39659 -5.43749 
2542 1 2.67833 2.51596 -5.55776 
3433 2 3.69287 2.59964 -4.99802 
23 1 4.70675 2.8555 -5.29868 
2147 1 4.80647 2.83691 -4.45462 
709 1 4.57885 3.64402 -5.38181 
1207 1 6.8869 1.64965 -4.87776 
3298 2 5.96804 2.7685 -5.64099 
723 1 6.68154 3.35871 -5.06258 
2297 1 -6.84391 3.47127 -5.12477 
2414 1 6.92344 4.17501 -5.04756 
3456 2 -4.47255 3.07901 -4.76493 
1910 1 -5.3967 3.91079 -5.66995 
59 1 -4.85915 4.34972 -5.55402 
912 1 -3.94424 4.23657 -4.94105 
1991 1 -3.47199 3.42307 -5.06443 
1733 1 -3.72447 3.15192 -4.29239 
2865 2 -2.74424 4.49503 -5.24837 
2401 1 -1.5486 4.88355 -5.42677 
175 1 -1.33743 3.85321 -5.37064 
2208 1 -0.947382 4.45888 -4.51937 
1687 1 -0.0959295 3.87569 -4.65892 
1269 1 -0.0306361 4.8937 -4.68519 
1521 1 1.4447 4.37901 -5.4027 
2379 1 3.25296 4.07806 -5.90632 
899 1 2.25851 3.58487 -5.19603 
2711 1 3.95214 3.39892 -5.97883 
2814 2 3.4009 4.16276 -4.88008 
2894 2 3.58467 3.35409 -4.83406 
16 1 3.97408 4.44215 -5.72133 
2927 2 5.72622 4.29669 -5.46385 
2917 2 5.6079 3.50228 -5.54251 
2092 1 4.60325 4.73212 -4.99952 
83 1 7.08296 2.52565 -5.07885 
2707 1 6.80419 4.6934 -5.80038 
2715 1 -6.16864 5.62492 -4.96496 
1200 1 -6.74418 4.642 -4.9125 
131 1 -5.75658 4.76916 -5.242 
587 1 -5.76821 6.33647 -5.51197 
2473 1 -5.12425 5.38618 -5.44834 
2342 1 -4.088 5.91114 -5.69649 
1229 1 -4.30945 5.02971 -5.47069 
1391 1 -3.46301 5.52978 -6.38721 
297 1 -4.84102 6.2894 -5.29694 
3458 2 -2.84554 5.2342 -5.21492 
2988 2 -3.1401 5.91619 -4.89345 
2635 1 -2.03053 6.5906 -4.97376 
1346 1 -3.46187 6.3053 -6.04624 
345 1 -1.86354 5.68945 -4.97114 
3207 2 -0.654163 5.2836 -5.5466 
3392 2 -0.391267 4.60501 -5.79249 
582 1 1.26022 6.06778 -4.89046 
2669 1 0.63625 4.48977 -4.92145 
2429 1 1.24473 5.20953 -5.1938 
1878 1 2.4466 4.30786 -5.5265 
15 1 2.34637 5.31128 -5.44681 
2762 2 3.18548 4.99006 -4.48723 
3531 2 2.89341 5.83283 -4.36572 
696 1 3.31272 5.39767 -5.59303 
1113 1 4.17585 5.44398 -4.36871 
1311 1 4.68288 6.08688 -5.8977 
2086 1 5.03525 5.87873 -3.89944 
459 1 4.22342 5.35312 -5.50343 
1923 1 4.9247 5.08277 -4.37748 
3257 2 5.63868 5.1496 -5.31708 
2971 2 5.16501 6.04299 -4.97396 
806 1 6.60088 5.56436 -5.44901 
2317 1 7.14752 5.26504 -5.04686 
3147 2 -6.94546 6.14987 -5.85762 
3330 2 -7.02875 6.93444 -5.59117 
1184 1 -6.20917 6.77146 -4.97917 
942 1 -6.00929 6.76758 -6.34505 
29 1 -5.3872 7.03392 -4.99183 
2321 1 -4.47964 6.91086 -4.83829 
2033 1 -3.98462 6.91404 -5.53178 
2835 2 -3.07257 -7.13035 -4.56443 
1881 1 -1.99666 6.80788 -5.85596 
3265 2 -3.38237 6.6233 -4.75381 
127 1 -2.27464 6.70954 -3.98918 
2603 1 -2.71593 6.20799 -5.77681 
3018 2 -0.742507 6.10209 -5.44415 
3455 2 -0.961043 6.84516 -5.38041 
1356 1 0.250565 5.841 -5.88469 
1799 1 -0.0263044 6.90289 -6.00414 
427 1 1.02774 6.86975 -4.51665 
1837 1 1.78755 6.62117 -4.94692 
1689 1 1.77446 6.23098 -4.05839 
1130 1 2.33039 6.15683 -5.28022 
248 1 3.44434 6.91449 -5.22739 
1882 1 3.85454 6.06119 -5.10828 
811 1 2.41642 6.96613 -5.65449 
798 1 4.14876 6.92341 -5.61701 
2483 1 3.91108 6.53029 -4.31473 
3290 2 4.71857 -6.7585 -4.71094 
2926 2 4.95691 6.84192 -4.84718 
213 1 -6.8317 5.93247 -4.61036 
1667 1 6.21871 6.39326 -5.36401 
2088 1 5.9057 6.58269 -4.23187 
440 1 6.23117 7.17501 -4.9817 
655 1 -6.68676 6.80293 -4.0958 
316 1 -6.85694 -6.16591 -4.22269 
947 1 -6.71465 -6.96553 -2.58919 
698 1 -4.7134 -6.24133 -4.76124 
3228 2 -5.57395 -7.09446 -3.90441 
2462 1 -4.77057 -6.16367 -3.82176 
3413 2 -3.50034 -6.53114 -4.30288 
3562 2 -3.70999 -5.74291 -4.33312 
1406 1 -2.71656 -6.0563 -3.62638 
1665 1 -2.21034 -6.70072 -3.96386 
1144 1 -1.45506 -6.33553 -4.07314 
1327 1 -1.4659 6.96571 -4.38529 
1585 1 -0.757204 -5.70253 -3.94937 
2453 1 0.178283 -6.99297 -5.16919 
1089 1 -0.82134 -7.09336 -3.88175 
3056 2 0.396266 -6.73853 -3.55923 
1810 1 -0.705202 -6.4637 -3.36224 
2238 1 1.39364 -6.48795 -4.00675 
1289 1 0.778373 -6.63265 -4.649 
2918 2 2.42971 -6.25747 -3.95344 
189 1 3.68914 -6.95471 -4.34511 
112 1 3.49439 -6.33074 -3.28361 
538 1 5.12679 -6.73646 -3.44146 
1000 1 4.29381 -5.93972 -3.466 
72 1 5.37015 -6.13194 -3.85499 
2615 1 6.96063 -7.06859 -4.41192 
2571 1 -6.75881 -6.91111 -3.56165 
3375 2 -5.79528 -6.22998 -3.81899 
2896 2 -6.00594 -5.47673 -3.7565 
2388 1 -6.75902 -5.05288 -4.28211 
1664 1 7.18092 -5.63648 -3.69147 
2323 1 -5.25565 -5.52804 -4.74425 
595 1 -4.87733 -5.38449 -3.75182 
3536 2 -3.89055 -5.01035 -4.0736 
228 1 -3.36681 -4.7985 -5.04308 
2038 1 -1.78429 -5.62191 -3.66843 
666 1 -2.89534 -5.30247 -3.39835 
1163 1 -1.74513 -4.35524 -3.29848 
1127 1 -1.02005 -4.86848 -3.69053 
1028 1 -0.00358067 -5.3037 -4.3839 
2623 1 1.40844 -5.74089 -4.44659 
1611 1 0.897568 -5.02226 -4.3772 
1538 1 0.217091 -6.09155 -4.55063 
2105 1 1.17848 -5.31881 -3.59475 
3379 2 2.34435 -5.44978 -3.79057 
3230 2 2.00063 -4.65524 -3.81978 
2145 1 3.51915 -5.07666 -4.61545 
3244 2 4.55091 -4.31004 -4.29105 
834 1 3.4561 -5.20549 -3.76242 
2722 1 3.91639 -4.49932 -3.20259 
3340 2 4.7806 -5.1428 -4.41072 
997 1 5.7401 -4.90927 -3.80372 
1994 1 5.77824 -5.0163 -4.92541 
2521 1 7.01041 -4.52466 -3.63709 
1013 1 6.73191 -6.30479 -4.19999 
2507 1 6.51487 -5.30645 -4.04266 
1354 1 -7.12232 -3.84891 -3.97442 
3286 2 -6.05658 -4.63554 -3.28828 
1542 1 -5.69863 -4.79447 -4.52223 
2375 1 -5.77753 -2.57768 -3.91545 
1251 1 -5.96968 -3.88412 -4.23465 
3376 2 -4.01801 -4.17239 -3.91958 
3083 2 -4.05095 -3.32726 -3.83811 
977 1 -2.94195 -4.19456 -4.50417 
1299 1 -2.35941 -4.67382 -3.66967 
3285 2 -1.81262 -4.54854 -4.67392 
3198 2 -1.8606 -3.73324 -4.52241 
1846 1 -0.935093 -3.98574 -3.70912 
1195 1 -0.114428 -3.30853 -3.97385 
1491 1 0.311851 -4.41392 -4.09152 
2540 1 0.812932 -3.75008 -3.65927 
247 1 1.00955 -4.61615 -3.32634 
692 1 1.32832 -4.07901 -4.6087 
850 1 2.58434 -4.02936 -4.56657 
1215 1 2.97396 -3.35059 -3.97831 
3320 2 1.9698 -3.15811 -3.41128 
3015 2 1.96174 -3.96301 -3.56341 
2857 2 4.0699 -3.74262 -4.15715 
27 1 3.13827 -4.31765 -3.84222 
1595 1 5.50428 -3.77448 -4.25767 
1428 1 5.09649 -4.45494 -3.33921 
2670 1 6.1163 -4.29314 -4.11709 
168 1 5.42514 -3.53396 -3.42219 
1444 1 -7.04035 -2.51212 -4.85582 
2351 1 -6.15425 -1.80191 -3.7507 
56 1 -5.26028 -3.00433 -4.29687 
1182 1 -4.58057 -3.23754 -4.90409 
3229 2 -4.31292 -2.57946 -3.74351 
3447 2 -4.38335 -1.79589 -3.4857 
2044 1 -2.64655 -3.83519 -3.82836 
1285 1 -3.10767 -2.58091 -3.63001 
2302 1 -2.66128 -1.51464 -4.93698 
858 1 -0.861991 -2.18291 -3.90406 
2916 2 -1.72943 -3.00693 -4.15954 
358 1 -1.02441 -3.15623 -3.49369 
2400 1 -0.0529876 -2.40276 -3.50594 
1055 1 0.661705 -1.7343 -3.65918 
2263 1 0.683038 -2.80826 -3.76676 
749 1 1.27514 -3.13996 -4.44016 
1830 1 2.84488 -2.30564 -3.53912 
2558 1 2.12553 -3.30549 -4.66441 
1653 1 3.25084 -3.04979 -3.17559 
656 1 1.9735 -2.46908 -4.26978 
3353 2 4.1938 -3.00443 -3.77777 
3134 2 3.91196 -2.2652 -3.83548 
2211 1 5.32366 -2.86223 -4.09003 
2646 1 5.03021 -2.91144 -3.12362 
960 1 5.03129 -1.94065 -4.1621 
3173 2 6.4832 -3.16708 -4.65839 
2858 2 6.39495 -2.44562 -4.42203 
1851 1 6.36486 -3.65692 -3.67476 
1294 1 -7.06364 -2.95981 -3.89987 
721 1 6.04189 -2.75744 -3.34286 
1316 1 -5.63072 -1.2422 -3.51558 
2132 1 -6.81318 -2.10833 -4.2108 
2657 1 6.73562 -2.15622 -3.37545 
1568 1 -6.50564 -0.718783 -3.59267 
1791 1 -6.97865 -1.39688 -3.74077 
318 1 -5.21263 -1.94125 -4.20061 
1151 1 -4.62977 -1.42098 -4.85276 
2436 1 -5.04468 -0.927947 -4.28491 
2480 1 -4.0448 -0.956664 -4.33907 
1787 1 -3.36462 -0.79617 -3.75241 
2766 2 -1.88654 -2.19575 -4.20338 
1790 1 -3.1108 -1.73897 -3.9536 
2748 2 -2.08883 -1.40382 -3.86223 
1441 1 -0.975859 -0.744715 -3.37105 
1266 1 -1.21452 -1.92889 -3.23386 
3585 2 0.0519417 -1.21098 -4.57679 
1065 1 -0.292578 -1.57268 -3.48124 
1239 1 1.34541 -1.98406 -4.19076 
167 1 1.40606 -1.14474 -4.08152 
2020 1 0.723184 -0.834811 -3.56757 
1275 1 4.19282 -0.99767 -4.42875 
2460 1 2.50853 -0.306666 -3.14562 
1300 1 3.03733 -1.50766 -4.43209 
85 1 5.2768 -2.1984 -5.01667 
2914 2 3.66496 -1.46479 -3.61083 
3483 2 3.61968 -0.634828 -3.44399 
1226 1 5.5848 -2.07446 -3.39068 
734 1 4.52309 -1.00917 -3.14507 
3116 2 6.24701 -1.65023 -4.43422 
2856 2 5.80088 -0.871328 -4.21289 
1560 1 6.83342 -0.621888 -3.42279 
3267 2 -6.38041 -0.0607869 -4.60824 
2028 1 -7.06621 0.0930843 -3.47929 
1953 1 -4.99178 -0.129395 -4.53721 
697 1 -5.60416 -0.307166 -3.86991 
1671 1 -3.44655 -0.0164427 -4.04116 
2363 1 -4.30278 -0.0042467 -4.00781 
1809 1 -3.63813 0.193683 -3.25408 
2448 1 -4.26438 0.812552 -3.74397 
2789 2 -2.28645 -0.544826 -3.70853 
3490 2 -2.46357 0.293154 -3.5629 
1777 1 -1.59562 0.505215 -4.54019 
2228 1 -1.31805 0.274879 -3.35392 
883 1 -1.47578 1.0179 -3.80094 
3500 2 -0.227705 -0.386525 -4.4451 
3555 2 -0.341132 0.440569 -4.24722 
1432 1 0.506934 0.0695689 -3.32613 
876 1 1.82363 -0.268878 -3.74364 
1176 1 2.31404 0.482522 -3.19876 
2407 1 2.32818 -0.821989 -3.91564 
2084 1 2.5828 0.0909752 -4.04055 
2575 1 2.59609 1.05613 -4.04576 
2135 1 3.47593 0.487831 -4.41257 
665 1 4.744 -0.439805 -4.70504 
3305 2 3.55979 0.187575 -3.17807 
2201 1 4.7255 -0.0717366 -3.62424 
2902 2 5.70944 -0.0978973 -3.86585 
410 1 4.82467 -1.1965 -3.87085 
1927 1 6.70814 0.956303 -4.09891 
2642 1 6.77067 0.153323 -4.24705 
2819 2 5.64836 0.783432 -3.87526 
49 1 6.51097 0.574647 -3.19917 
3186 2 -6.6327 0.660936 -4.45393 
3263 2 -6.45755 1.34297 -4.44282 
1880 1 -7.06363 1.09861 -3.49458 
750 1 -6.94106 2.08216 -3.23213 
1169 1 -5.74103 1.32368 -3.56891 
1725 1 -5.22188 0.730927 -4.20696 
1060 1 -5.46466 2.0657 -4.05655 
2508 1 -3.73348 1.78161 -4.00617 
594 1 -3.52091 0.901578 -4.27881 
731 1 -4.63911 1.65246 -3.93172 
521 1 -3.73032 1.03541 -3.18849 
3588 2 -2.77387 1.09583 -3.533 
286 1 -1.80653 1.62453 -4.32168 
3120 2 -2.75134 1.89648 -3.26131 
1894 1 -1.38074 1.51781 -2.9739 
2950 2 -0.336912 1.22504 -3.95048 
3443 2 1.59751 1.48335 -4.59477 
1763 1 0.674643 0.175708 -4.84955 
414 1 1.63963 0.55773 -3.93671 
2650 1 1.97745 1.30183 -3.50908 
1375 1 0.793189 0.547546 -3.93572 
2186 1 0.212885 0.896001 -3.09421 
1788 1 2.97016 1.21535 -4.93481 
1524 1 2.85169 2.10116 -4.18358 
1325 1 4.34382 0.900021 -3.99133 
377 1 3.66162 1.39808 -4.23629 
82 1 4.96693 0.613831 -4.54829 
3209 2 5.55436 1.611 -3.63712 
3369 2 5.5618 2.51214 -3.44497 
2584 1 6.76278 1.7396 -3.88198 
3260 2 -6.58622 2.1233 -4.21595 
3033 2 -6.83069 2.8391 -4.1789 
1955 1 -6.61665 2.81313 -2.927 
1148 1 -4.4716 3.259 -3.21515 
554 1 -5.48576 3.03548 -3.79172 
1913 1 -5.99363 2.17775 -3.3191 
2551 1 -4.73765 2.61615 -3.7764 
2395 1 -3.28284 2.44479 -4.3317 
2490 1 -2.19235 2.57082 -4.1712 
3372 2 -2.82822 2.68851 -3.22463 
1367 1 -1.75971 1.9602 -3.69805 
2860 2 -0.788249 2.816 -3.78285 
772 1 0.524881 2.29849 -4.0424 
3196 2 -0.559329 2.05231 -3.82224 
1486 1 0.0880441 3.3861 -3.88179 
3241 2 1.55119 2.29722 -4.41557 
3063 2 1.44562 2.97718 -4.15526 
2313 1 1.35929 2.1341 -3.31132 
2286 1 0.606677 3.22788 -3.28302 
1466 1 2.64507 2.8582 -3.59906 
2592 1 2.56677 2.79932 -4.64376 
1532 1 2.23011 3.54022 -3.54262 
614 1 3.59625 2.41501 -3.7804 
891 1 4.42347 1.46307 -3.37969 