ITEM: TIMESTEP
30700
ITEM: NUMBER OF ATOMS
3594
ITEM: BOX BOUNDS pp pp pp
-7.1952367409169948e+00 7.1952367409169948e+00
-7.1952367409169948e+00 7.1952367409169948e+00
-7.1952367409169948e+00 7.1952367409169948e+00
ITEM: ATOMS id type x y z 
317 1 -6.19953 -6.84462 -6.50181 
1273 1 -4.81039 -5.72135 -6.9151 
3477 2 -4.76336 -6.9784 -6.1583 
833 1 -4.49181 -6.66065 7.15758 
1490 1 -5.34401 7.00042 -7.138 
1733 1 -3.53952 6.98586 -6.07058 
2944 2 -2.60227 -6.73182 -6.54314 
3268 2 -2.62544 6.88215 -6.70767 
579 1 -1.78893 -6.48244 -5.88636 
1905 1 -0.257081 -7.10892 -6.08793 
1836 1 -0.913222 -6.07343 -6.18545 
786 1 -1.20473 -6.86627 -6.20003 
2415 1 0.480366 -6.52408 -6.40239 
3537 2 -0.212664 -6.52211 -7.19266 
290 1 1.16444 -6.34414 -6.73364 
546 1 3.00917 7.08176 6.9584 
2048 1 1.83136 -6.52154 -6.2158 
1088 1 2.45145 -7.17445 -6.66071 
3442 2 3.39074 -6.37035 -6.22386 
1029 1 4.71754 -5.03297 6.87848 
3208 2 5.74941 -6.28866 -6.75686 
2256 1 4.50722 -6.12495 -6.5254 
2539 1 5.34902 -6.16582 -5.67214 
2787 2 5.99682 -7.08457 -6.87092 
1918 1 7.18566 -6.90741 -6.49395 
2573 1 6.10162 -6.76533 -5.04394 
639 1 6.42948 -7.05013 -5.86285 
1906 1 -5.6511 -6.23023 -6.73972 
3495 2 -6.52506 -5.72396 7.11353 
977 1 -4.02278 -5.89211 -7.05217 
2706 1 -4.82552 -4.97786 -6.53778 
1184 1 -6.068 -5.55462 -6.25854 
601 1 -3.85971 -7.13293 -6.7965 
1654 1 -3.80629 -4.63959 -6.69401 
1477 1 -3.43289 -3.97262 6.67744 
3574 2 -2.71549 -5.80395 -6.44345 
2981 2 -2.84962 -5.07699 -6.12442 
2018 1 -1.61635 -5.35561 -6.6036 
3368 2 -0.500635 -5.67413 -7.00584 
2058 1 -1.25698 -4.59676 -5.67299 
3019 2 -0.645139 -4.78971 -6.87778 
2453 1 -1.56826 -5.59801 -5.77186 
386 1 -1.96046 -4.61189 -6.49456 
2537 1 0.327278 -5.67074 -6.05253 
1734 1 0.469469 -4.80546 -6.65899 
774 1 1.23188 -5.51045 -6.22821 
1234 1 2.0201 -5.48594 -6.34232 
1538 1 2.29727 -6.22327 -6.78653 
2631 1 2.3818 -4.765 -6.76787 
2957 2 3.09917 -5.68985 -6.03385 
589 1 4.29118 -5.21421 -6.48287 
701 1 3.8143 -5.21283 -7.02494 
2357 1 4.11674 -4.46426 -7.02355 
2812 2 5.38325 -5.53193 -6.64781 
3212 2 5.25429 -4.84196 -6.49488 
1373 1 6.92309 -6.08372 -6.3346 
1345 1 -6.87101 -5.38241 -5.9102 
695 1 -6.60818 -6.22368 -6.25673 
1527 1 6.46172 -5.30418 -6.29263 
2727 1 -6.18884 -3.79655 -6.27891 
2975 2 -6.92247 -4.29628 -6.98502 
1949 1 -6.05756 -3.70017 6.89329 
2353 1 -6.17482 -2.52798 -5.93733 
2122 1 -5.75294 -4.2768 -6.87975 
1361 1 -5.41845 -3.1381 -6.34973 
843 1 -4.99957 -4.02582 -6.58905 
2480 1 -3.92832 -3.64035 -6.65275 
2262 1 -2.84438 -4.36264 -7.1152 
890 1 -2.70065 -3.49853 -6.8268 
1470 1 -1.95845 -3.95051 7.19256 
228 1 -2.18415 -3.92296 -6.05562 
3484 2 -1.00952 -4.08003 -6.51387 
2808 2 -1.14128 -3.39692 -6.46364 
2599 1 0.754665 -4.174 -6.37579 
2520 1 1.46235 -3.57087 -6.15573 
1897 1 1.53854 -4.60543 -6.19726 
308 1 1.60299 -3.06975 -5.29096 
19 1 2.03605 -3.84357 -6.6354 
329 1 3.15459 -4.64625 -7.08425 
1051 1 3.7164 -3.97499 -6.52524 
2150 1 3.93676 -3.6234 -5.56593 
1876 1 4.02838 -3.16602 -6.64385 
3266 2 5.06338 -4.03114 -6.38948 
2767 2 5.03373 -3.30886 -6.03818 
1981 1 4.62716 -3.66588 7.1514 
1263 1 6.51522 -5.34859 7.09779 
1372 1 6.36586 -4.48717 -6.61888 
2106 1 -6.1939 -2.73626 -6.87645 
3126 2 -7.09371 -3.54674 -6.7302 
41 1 -5.27313 -1.28658 -5.93109 
2612 1 -5.29503 -2.20676 -6.13854 
1434 1 -4.49987 -3.00242 -6.33402 
1450 1 -4.54312 -1.94491 -6.58369 
2114 1 -3.96974 -2.72772 -6.82521 
2549 1 -1.84199 -2.90008 7.12994 
2516 1 -3.07613 -2.63626 -6.91914 
871 1 -2.32093 -3.11734 -6.22943 
1738 1 -2.43787 -2.16382 -6.67552 
3332 2 -1.40688 -2.67942 -6.37588 
3234 2 -1.24209 -1.92025 -6.24591 
2718 1 0.076346 -3.69906 -6.09132 
2057 1 -0.200556 -2.69412 -6.92779 
1210 1 0.056533 -3.48236 -6.89516 
1313 1 1.28143 -2.45657 -5.70756 
3347 2 1.04829 -3.00781 -7.03531 
2804 2 0.978993 -2.24971 -6.88028 
1859 1 1.86496 -2.92958 -6.40721 
483 1 2.34637 -2.08294 -6.63793 
628 1 2.40804 -3.23627 -7.13214 
985 1 3.10092 -2.64755 -6.70154 
296 1 2.99308 -3.74831 -6.78762 
309 1 4.58006 -2.51726 7.1435 
1085 1 3.74038 -2.17467 -6.89502 
3550 2 4.77601 -2.61235 -6.00529 
1362 1 5.39056 -2.94287 -7.15747 
1472 1 5.98531 -2.90068 -6.41518 
3087 2 -7.17787 -2.68982 -6.68796 
2211 1 6.23562 -3.4287 -6.80939 
2072 1 -6.62114 -1.80835 6.99521 
2535 1 -6.18845 -1.82421 -6.64383 
1445 1 -6.08979 -1.33917 -5.96271 
351 1 -4.07075 -1.18765 -6.89225 
2892 2 -5.2887 -2.19005 6.98676 
3360 2 -5.34317 -1.398 7.19034 
1800 1 -2.55656 -1.61466 -5.92734 
743 1 -3.96568 -1.96999 7.1142 
667 1 -3.17071 -1.54937 -6.67962 
1722 1 -2.85795 -0.82434 -6.42887 
3105 2 -1.52577 -1.14703 -6.24999 
607 1 -0.668599 -1.74862 6.94769 
321 1 -0.60648 -1.00095 -6.95832 
2013 1 -0.296531 -1.63828 -6.56098 
3151 2 0.73435 -1.51209 -6.94053 
1837 1 1.56258 -1.86761 -6.12576 
859 1 1.11094 -0.995411 -5.76206 
823 1 1.94622 -1.16183 -6.36344 
76 1 2.89108 -1.38086 -6.13192 
1524 1 3.70728 -1.34007 -6.61283 
478 1 4.93186 -1.73395 7.13405 
2972 2 4.69391 -1.86278 -6.11585 
2721 1 6.34097 -1.77532 6.92877 
2510 1 5.66064 -2.0926 -7.05051 
1698 1 4.31281 -1.08123 -7.14549 
2840 2 6.99817 -1.90738 -6.62865 
2797 2 6.72099 -1.19403 -6.40678 
547 1 -6.79002 -1.01711 -6.94519 
385 1 -6.93022 -0.105142 -6.71731 
625 1 -6.69259 -0.713597 -6.15274 
1457 1 -4.37802 0.0998027 -6.4454 
3097 2 -5.64225 -0.697752 -6.99399 
3127 2 -5.90638 -0.0222283 -6.754 
83 1 -3.77961 0.724397 -6.1253 
2543 1 -3.65412 -0.36787 -6.6628 
1233 1 -4.54521 -0.411616 7.13921 
1370 1 -2.9793 1.30052 -6.57668 
2505 1 -2.61098 0.52944 -6.83745 
3200 2 -1.69741 -0.40866 -6.03912 
2796 2 -2.00466 0.201023 -5.82247 
994 1 -0.517573 -0.413502 -6.20157 
3088 2 0.516984 -0.707254 -6.6491 
3311 2 0.375908 0.156078 -6.60186 
1978 1 1.39004 0.744187 -6.34136 
2708 1 1.73624 -0.298905 -6.32497 
1057 1 2.53559 -0.653959 -5.96689 
2730 1 2.01516 0.331023 -5.90095 
785 1 3.63679 0.492582 -6.53633 
312 1 3.42972 -0.464301 -6.32311 
970 1 3.84313 0.567664 7.05003 
1185 1 4.89696 0.129615 -6.67032 
50 1 5.15932 -0.629543 -6.90867 
148 1 5.66135 -1.15481 -6.47931 
140 1 5.34288 -0.208567 -6.02748 
3135 2 6.52288 -0.473324 -6.48633 
3038 2 6.43015 0.186349 -6.30289 
3007 2 -5.95574 0.825299 -6.58691 
2151 1 -7.00204 0.87937 -6.26078 
668 1 -4.32262 1.34756 -6.30347 
1224 1 -4.88771 0.731708 -6.2 
1476 1 -5.02478 1.42999 7.00913 
2010 1 -4.66891 0.557881 -7.10465 
3148 2 -3.82407 1.74729 -7.16932 
2466 1 -3.56668 1.5233 -5.79239 
343 1 -1.98582 1.26505 -6.80854 
2523 1 -1.46032 0.764874 -6.78485 
1993 1 -0.25177 1.5341 -5.25835 
2508 1 -1.23011 1.45259 -5.91062 
323 1 -0.92396 -0.00770183 -6.94622 
2928 2 0.11485 0.90981 -6.37421 
3078 2 -0.161475 1.61973 -6.33017 
175 1 1.14087 1.62016 -6.39945 
693 1 1.53642 1.97709 -5.79207 
851 1 2.10242 1.22545 -5.8497 
2463 1 0.947868 2.24976 -7.09367 
3459 2 2.49502 1.15773 -6.85258 
3393 2 2.14261 1.89257 -6.92463 
1176 1 2.93774 1.97175 -6.15616 
925 1 2.931 0.962889 -5.70677 
1113 1 3.59821 1.35724 -6.63487 
2276 1 4.5324 0.936189 -6.63717 
1883 1 4.7815 1.60607 -6.11832 
2183 1 5.59412 0.823621 -6.96367 
2061 1 -7.056 1.41157 -7.06527 
3060 2 6.2786 0.924734 -6.03021 
2597 1 -6.41603 1.14206 6.75819 
3140 2 -5.90873 1.56326 -6.56777 
3465 2 -6.28514 2.32729 -6.49879 
1335 1 -4.8041 2.08126 -6.70768 
1318 1 -5.40077 2.48454 6.97367 
3093 2 -3.90963 2.57731 -7.07361 
2783 2 -4.12506 3.30917 -6.81652 
1232 1 -4.06825 2.33634 -5.98497 
2601 1 -3.30786 2.10689 -6.2504 
883 1 -2.46241 1.90744 -6.8071 
803 1 -3.37836 3.10794 -6.11537 
2522 1 -1.22473 1.85758 -6.63183 
2603 1 -1.08856 3.09332 -6.89623 
1933 1 -0.677878 2.39216 7.00237 
3444 2 -0.227669 2.37228 -6.3258 
1396 1 0.681457 3.38279 -6.9562 
2813 2 -0.123609 3.15385 -6.07095 
1368 1 0.950335 2.6408 -6.33643 
3478 2 2.00036 3.41816 -6.53088 
3417 2 2.11437 2.62128 -6.66091 
1923 1 2.75792 3.01913 -5.88147 
2093 1 3.13734 3.48763 -6.83693 
899 1 3.37559 2.70639 -6.30797 
2092 1 4.19904 1.9859 -6.57046 
795 1 4.61475 3.50626 -5.31135 
284 1 5.30656 1.65713 -6.78017 
865 1 5.26983 2.65202 -6.75558 
2530 1 6.06356 3.22375 -6.74473 
404 1 5.83824 2.15795 -7.13735 
122 1 6.47318 2.51441 -6.77933 
1229 1 -7.18233 1.7938 -6.14432 
131 1 6.95909 2.84223 -5.88141 
2736 2 -6.42487 3.22162 -6.22004 
3238 2 -6.58849 4.12366 -5.89388 
141 1 -5.93805 3.38662 7.02281 
35 1 -5.30815 3.11903 -6.70369 
491 1 -5.51941 4.25939 -6.15611 
3408 2 -4.50655 3.9524 -6.7363 
3411 2 -4.54211 4.71846 -6.70671 
1745 1 -2.86923 2.79776 -6.78583 
1619 1 -1.77582 2.48248 -6.54758 
448 1 -2.85994 3.83657 -6.56976 
597 1 -2.20356 3.22501 -6.45092 
287 1 -1.34023 3.35758 -6.11518 
1517 1 -1.17348 3.98923 -6.70206 
912 1 -0.864962 3.9846 6.79278 
792 1 -0.308356 3.36862 7.1282 
225 1 0.392184 4.52001 -6.05872 
2271 1 0.708358 4.16012 -7.0065 
1877 1 0.859108 3.58887 -5.93441 
3466 2 1.82621 4.13458 -6.31967 
3138 2 1.47493 4.87378 -6.09909 
324 1 1.29908 4.83369 6.59041 
1261 1 3.25338 3.72791 -6.23088 
1848 1 2.63122 4.1185 -5.46844 
1338 1 3.98648 3.44858 -5.89278 
3223 2 4.27507 3.95938 -6.85422 
3551 2 4.33056 3.1631 -7.19109 
16 1 5.28337 3.5492 -6.87793 
862 1 4.58469 2.62788 -6.03643 
339 1 6.70061 4.08217 -6.54928 
805 1 6.90807 3.32212 -6.76932 
213 1 5.88611 4.36954 -6.59316 
522 1 -5.70044 5.05697 -6.55115 
3045 2 -6.79536 4.8661 -5.84363 
1662 1 -6.4808 4.89314 -7.06869 
1413 1 -5.60335 4.43438 -7.15048 
3471 2 -4.51281 5.2932 -6.17285 
297 1 -5.0871 4.76152 -5.50175 
945 1 -3.4754 4.26648 -7.01502 
2839 2 -2.22129 4.67517 7.09544 
2832 2 -2.47931 5.37482 -7.18104 
2270 1 -2.74925 4.78367 -6.18932 
197 1 -1.64865 5.04613 -6.32604 
741 1 -1.40995 6.00331 -6.55553 
2635 1 -0.885239 4.86231 -6.75784 
1435 1 -0.732161 5.63052 -6.76016 
2446 1 -0.211716 4.19347 -6.76921 
2304 1 0.795918 5.0983 -6.98072 
2831 2 1.31839 5.72778 -6.0769 
1346 1 1.43702 5.7836 7.19304 
1247 1 2.77714 4.50993 -6.58245 
2212 1 2.8107 5.7898 -6.17147 
3215 2 4.10654 4.72212 -6.68826 
2790 2 3.76247 5.50977 -6.69469 
1068 1 4.53197 5.31779 -5.57742 
2305 1 5.46982 5.42175 -6.23582 
1584 1 6.41852 5.86983 -5.9301 
82 1 4.83247 5.90601 -6.11393 
2142 1 6.98331 4.92968 -6.90555 
2703 1 6.34433 5.04365 -6.24122 
1004 1 -5.70157 5.57983 -6.0348 
2582 1 -5.79178 6.66958 -6.18104 
1410 1 -6.50777 5.74302 -6.70939 
3150 2 -4.63589 6.61499 -6.1513 
101 1 -3.48318 5.96615 -6.36719 
3463 2 -4.63409 5.97278 -6.52337 
2309 1 -3.65221 5.91655 7.08253 
345 1 -2.73859 5.76026 -5.98071 
3454 2 -2.45183 6.2341 -7.10197 
1506 1 -2.83347 6.56949 -5.69293 
1881 1 -1.88412 5.92537 -5.97168 
104 1 -1.44501 6.88325 -6.966 
1567 1 -1.79419 6.7779 -6.00268 
1634 1 0.318039 6.87353 -6.53799 
1521 1 -0.911356 6.70523 -6.36226 
1639 1 0.575269 5.99108 -6.97933 
2492 1 1.63639 -7.05134 -6.75223 
2899 2 1.52558 6.48122 -5.88053 
1016 1 2.08895 6.34707 -6.87772 
2431 1 2.94631 6.23503 7.16445 
96 1 2.69603 6.68424 -5.99174 
3587 2 3.61686 -7.13301 -6.36042 
3569 2 3.86042 6.41919 -6.44383 
2574 1 5.51554 -6.98155 -5.79025 
2088 1 4.74613 6.49682 -6.85963 
1530 1 5.5684 6.50889 -5.94267 
932 1 4.96268 -7.17415 -6.40491 
1727 1 6.94789 5.85417 -6.73107 
1291 1 -6.52459 6.74045 -6.51105 
66 1 6.83888 6.63836 -6.22951 
1616 1 -6.03897 -6.85991 -5.70994 
587 1 -5.99788 -6.12614 -4.66373 
2248 1 -5.36607 -6.9097 -5.06557 
3520 2 -5.03184 -6.34802 -5.87417 
1144 1 -5.05861 -5.93225 -4.53568 
1609 1 -4.14416 -6.17727 -5.07097 
278 1 -4.48627 -7.06398 -4.97528 
2176 1 -4.14574 -5.41878 -6.03888 
1585 1 -2.23704 -5.90408 -5.23761 
1643 1 -2.78886 -6.48142 -5.46022 
1640 1 -3.80578 -6.3386 -6.27597 
3594 2 -1.02423 -6.70482 -4.99706 
3322 2 -1.13567 -5.87287 -4.85839 
1333 1 -0.141856 -6.37388 -5.81244 
2632 1 0.52929 -6.17336 -4.3298 
3128 2 1.08529 -6.61085 -5.46784 
1998 1 1.10669 -6.97548 -4.4703 
2379 1 2.37839 -6.93175 -5.53643 
709 1 4.45057 -6.70501 -5.75955 
168 1 3.90343 -6.31365 -4.95732 
1416 1 3.19422 -6.78502 -5.09115 
3290 2 5.19079 7.1492 -4.88915 
3487 2 -7.15663 -6.13678 -5.13323 
779 1 6.27744 6.78019 -5.28887 
1312 1 6.04842 -5.89035 -4.93216 
2747 2 -6.97518 -7.00789 -5.30224 
2206 1 6.73848 -7.06985 -4.5114 
472 1 -6.1212 -5.94276 -5.45443 
52 1 -6.35686 -4.69542 -6.03467 
3416 2 -5.14921 -5.5777 -5.59165 
3325 2 -5.40789 -4.91829 -5.46166 
1406 1 -4.30768 -4.4069 -6.0512 
1086 1 -4.35588 -5.43982 -4.75177 
1140 1 -4.49694 -4.37741 -4.92659 
520 1 -3.91539 -4.82648 -5.35605 
572 1 -4.50617 -3.64115 -5.90819 
897 1 -3.09776 -5.49165 -5.12633 
959 1 -3.565 -5.95558 -5.58665 
1979 1 -3.14174 -4.61571 -4.85095 
3480 2 -1.42232 -5.09978 -4.56738 
2368 1 -0.0535535 -5.68252 -5.17934 
245 1 -0.633592 -5.35021 -5.80146 
1552 1 -0.235084 -4.92158 -4.89828 
2826 2 1.04069 -5.68742 -5.25458 
3068 2 0.7754 -4.95246 -5.22298 
1945 1 2.10699 -6.33031 -4.74418 
26 1 1.97052 -4.3404 -4.82545 
2933 2 3.18713 -4.97856 -6.04052 
984 1 3.24925 -5.09681 -4.17662 
2623 1 2.1223 -5.99632 -5.60753 
1385 1 2.54939 -5.21423 -4.89443 
190 1 3.91552 -5.2858 -4.89347 
1034 1 4.1507 -4.52905 -5.92367 
1415 1 4.78968 -5.14393 -5.40493 
2009 1 4.2373 -5.73559 -5.60302 
452 1 5.32099 -4.43519 -5.2117 
144 1 5.70369 -5.44094 -5.48729 
1320 1 6.11024 -5.59712 -4.14971 
2015 1 6.29469 -6.21187 -5.75348 
2828 2 6.99367 -5.43268 -5.01583 
3010 2 6.93259 -4.55154 -4.73118 
392 1 -6.39822 -5.26429 -5.09183 
318 1 -6.75491 -4.17729 -5.33195 
2912 2 -5.54914 -4.16111 -5.46815 
2737 2 -5.60335 -3.31818 -5.31021 
262 1 -3.58232 -3.04658 -4.63536 
874 1 -4.65041 -2.48799 -5.67158 
1629 1 -2.08279 -4.76651 -5.38631 
3061 2 -3.1234 -4.31573 -5.941 
2083 1 -2.59394 -3.90907 -5.0624 
3041 2 -3.36168 -3.47785 -5.90932 
477 1 -3.65172 -3.9298 -4.85241 
484 1 -1.37806 -3.71879 -5.37247 
2289 1 -0.420853 -4.19206 -5.61406 
1689 1 0.0498567 -4.80279 -6.00416 
393 1 -0.591728 -2.98161 -4.5422 
1582 1 -0.649893 -3.78711 -4.89642 
502 1 1.70404 -4.01209 -5.53129 
3227 2 0.58918 -3.40791 -5.04789 
2768 2 0.782053 -4.17773 -5.15423 
1611 1 1.97801 -4.96276 -5.6305 
3249 2 3.05231 -4.51949 -5.43503 
3014 2 2.65159 -3.87983 -5.80672 
847 1 4.59017 -4.18404 -5.34218 
40 1 3.91671 -2.52747 -5.26989 
72 1 5.84123 -3.74384 -4.06751 
2617 1 5.64523 -3.60897 -5.05837 
1493 1 5.79456 -4.84452 -4.60478 
1006 1 7.0619 -4.48273 -5.87433 
85 1 6.16417 -4.68699 -5.57452 
3080 2 6.72128 -3.7528 -4.73443 
1151 1 -6.61038 -3.33946 -5.51364 
1078 1 -6.71084 -2.65198 -4.71076 
1369 1 -7.12738 -2.69696 -5.52117 
2126 1 -6.95918 -1.78842 -4.27073 
2890 2 -5.68104 -2.73354 -4.89925 
2974 2 -5.73001 -2.00164 -5.03328 
2699 1 -4.72774 -1.60208 -5.0367 
1392 1 -3.86711 -1.66155 -4.5553 
2869 2 -3.38823 -2.67806 -5.841 
2844 2 -3.63245 -1.93164 -5.72753 
1446 1 -4.36199 -2.55258 -4.70139 
594 1 -2.21269 -3.38217 -5.36624 
1953 1 -3.0064 -1.77601 -4.93596 
1087 1 -2.8589 -2.67162 -4.89083 
1474 1 -1.30551 -2.66011 -5.2038 
460 1 -2.14791 -1.73764 -5.03695 
2439 1 -0.980162 -2.13516 -4.49581 
250 1 0.68688 -3.02539 -6.04577 
658 1 -0.435442 -3.1113 -5.61111 
3430 2 0.427801 -2.61326 -4.88853 
27 1 2.92575 -3.28086 -4.59298 
2298 1 1.15638 -1.67599 -4.92306 
2830 2 2.59277 -3.04538 -5.66129 
1695 1 3.6388 -2.75325 -6.01457 
1648 1 3.24592 -2.23873 -4.60437 
1237 1 2.44771 -2.63033 -4.33027 
388 1 4.67784 -3.38849 -5.03576 
734 1 5.68623 -2.81109 -5.24483 
2360 1 5.98613 -3.84131 -5.91828 
802 1 6.84779 -3.58014 -5.88546 
1207 1 6.36017 -2.67331 -5.64464 
90 1 -6.81607 -1.84171 -5.51842 
2993 2 -5.87232 -1.25824 -4.88224 
1001 1 -4.86878 -0.590787 -6.33573 
521 1 -4.95372 -0.779441 -5.26419 
2578 1 -5.79008 -0.512148 -5.77509 
3543 2 -3.96655 -1.23809 -5.74124 
900 1 -2.79921 -0.720825 -5.57237 
1380 1 -2.1734 -2.5035 -5.47781 
1928 1 -3.16266 -1.06395 -4.62445 
2589 1 -2.18658 -0.876419 -4.95584 
1484 1 -0.863144 -0.846827 -5.32417 
632 1 -0.600461 -2.16263 -5.52904 
3354 2 0.0493484 -1.78383 -4.78326 
527 1 0.127765 -2.41348 -6.07802 
858 1 -0.159331 -1.27222 -5.83928 
3585 2 -0.220011 -1.05513 -4.47008 
2105 1 0.664983 -1.7403 -5.89218 
1777 1 0.018989 -0.41592 -5.50703 
922 1 0.657182 -0.670511 -5.17999 
3356 2 2.5128 -2.22691 -5.35816 
3557 2 2.13367 -1.57264 -5.23809 
110 1 3.23533 -0.785766 -5.43118 
2995 2 4.5288 -1.13166 -5.9117 
656 1 3.57904 -1.84904 -5.72981 
1322 1 4.27445 -1.84024 -5.03124 
2500 1 4.81725 -2.55035 -4.76005 
346 1 5.93042 -2.03007 -6.28121 
1354 1 7.18891 -1.67338 -4.93197 
1331 1 6.48876 -1.81111 -5.52899 
2641 1 -6.37638 0.287042 -5.78417 
1483 1 -7.1144 -0.973956 -5.4459 
3267 2 -6.27991 -0.609057 -4.69119 
3186 2 -6.41978 0.141924 -4.66985 
1927 1 -7.07266 -0.0925796 -5.71498 
2037 1 -5.06602 -0.0608344 -5.77111 
2605 1 -5.19846 -0.0948789 -4.77258 
3256 2 -3.90362 -0.464733 -5.5857 
3144 2 -4.11118 0.011418 -5.05298 
2560 1 -3.15993 0.1984 -6.18674 
2465 1 -3.19156 -0.0209045 -4.4084 
395 1 -3.62507 0.918089 -4.31623 
2108 1 -2.94454 0.0740976 -5.19098 
731 1 -2.16189 0.0831267 -4.73258 
640 1 -1.27673 -0.379392 -4.82296 
400 1 -0.838864 0.161396 -5.61048 
3500 2 -0.289371 -0.249039 -4.16624 
75 1 0.960743 0.0191505 -5.6839 
1432 1 0.772772 -0.0838765 -4.66328 
3449 2 2.06025 -0.736362 -5.07913 
3383 2 1.97182 -0.0320179 -4.98872 
840 1 3.00561 0.0624345 -5.04993 
3317 2 4.22957 -0.348941 -5.64362 
1830 1 4.42535 -0.936409 -4.74591 
2848 2 4.14143 0.528823 -5.42527 
194 1 5.7447 -0.85063 -5.69065 
2021 1 5.24482 -1.11073 -5.01121 
34 1 6.43784 -1.01919 -5.29381 
670 1 6.80542 -0.233312 -5.07295 
462 1 6.10932 -0.126012 -5.28563 
2681 1 -5.69406 1.67254 -5.01527 
1607 1 7.13516 0.720167 -5.29709 
928 1 -5.55384 0.59291 -5.44867 
1793 1 -5.43068 0.647126 -4.4382 
829 1 -5.75188 2.42775 -5.46055 
2861 2 -4.35799 0.776637 -4.98596 
3062 2 -4.56249 1.67718 -4.99426 
1238 1 -3.36946 0.877257 -5.33283 
2939 2 -2.24513 0.992525 -5.77689 
1894 1 -3.21855 1.76236 -4.99577 
2846 2 -2.29977 1.75755 -5.57226 
330 1 -2.06971 1.89599 -4.47439 
2395 1 -2.79629 0.837958 -4.7808 
1265 1 -0.901334 0.785794 -6.11782 
1543 1 -1.81647 1.07992 -4.45803 
1812 1 -1.40467 0.407525 -4.8011 
154 1 -1.02904 1.11283 -5.21608 
1195 1 -1.24489 1.81937 -5.12745 
2542 1 -0.0814776 0.639231 -5.38175 
867 1 1.02895 0.868326 -5.60149 
3443 2 1.93722 0.692974 -4.91514 
3241 2 1.68619 1.39042 -4.88394 
84 1 2.32725 2.29443 -5.57061 
414 1 2.91492 0.189121 -6.00379 
1618 1 2.76586 1.5228 -5.03504 
3364 2 3.96656 1.33176 -5.567 
2380 1 5.22898 0.783908 -6.03578 
817 1 5.28478 -0.186653 -5.15487 
377 1 5.08937 1.82354 -5.38809 
806 1 6.5103 1.63545 -4.69352 
2584 1 6.39093 0.674087 -4.88273 
499 1 5.32958 0.727201 -5.20074 
2383 1 -6.33386 1.16656 -5.55156 
2297 1 -6.7346 3.0491 -5.09979 
408 1 -5.09024 1.62952 -5.80181 
1367 1 -3.52739 2.57638 -5.02867 
561 1 -3.79617 3.50373 -5.19622 
2436 1 -3.64588 1.80655 -4.29895 
2845 2 -4.47427 2.45435 -4.78944 
1725 1 -5.04923 2.55803 -6.06776 
3117 2 -2.48214 2.53575 -5.66692 
2945 2 -2.35568 3.07542 -5.19681 
1623 1 -1.21983 2.43232 -5.86815 
2326 1 -1.40686 2.50991 -4.60763 
159 1 -1.39955 3.01225 -5.24078 
2208 1 0.656386 1.8499 -5.43528 
1661 1 -0.499552 2.42714 -5.16587 
620 1 0.103256 2.85478 -4.57595 
2673 1 0.582362 2.71247 -5.21104 
1889 1 1.76001 3.96162 -5.21402 
2285 1 1.34492 2.83141 -5.50264 
673 1 2.02233 3.16942 -5.40811 
295 1 2.43359 2.57982 -4.64732 
3388 2 3.71207 2.04168 -5.33974 
3433 2 3.49679 2.89239 -5.10123 
1066 1 4.50973 2.73567 -5.12261 
2147 1 5.60705 1.54817 -4.76359 
1515 1 4.8462 3.81586 -4.55218 
3298 2 5.8093 2.58144 -5.66586 
3414 2 6.12211 1.72362 -5.78321 
115 1 -6.5729 2.17335 -5.38086 
2317 1 7.09321 1.56968 -5.21451 
1169 1 -6.36809 3.96424 -4.48343 
1965 1 6.99287 4.73395 -4.877 
29 1 -5.96092 3.13577 -4.90593 
822 1 -5.23688 3.50823 -5.79784 
443 1 -5.84753 4.15859 -5.09041 
2275 1 -3.66712 3.88244 -5.9094 
1772 1 -4.39288 3.09728 -5.78387 
2490 1 -3.31578 3.43238 -4.53623 
1691 1 -4.08582 4.83702 -5.22794 
2977 2 -2.65655 3.73418 -5.35439 
1308 1 -1.9989 4.13868 -6.1127 
3378 2 -0.412862 3.82654 -5.71524 
1763 1 0.0647102 3.72425 -4.62651 
3392 2 -0.639718 4.56749 -5.62676 
1505 1 0.235948 3.77456 -3.82647 
2598 1 0.764917 3.76168 -5.23576 
1817 1 0.991748 4.63885 -5.20503 
614 1 2.80317 4.97832 -5.81298 
2814 2 3.26797 4.67954 -4.62282 
2669 1 3.61857 5.24949 -5.65894 
946 1 2.48072 3.4399 -4.57053 
244 1 3.61078 4.33879 -5.74788 
2894 2 3.39747 3.61984 -4.81548 
839 1 4.88515 3.87061 -6.06365 
2917 2 5.74383 3.42257 -5.64921 
2927 2 5.51597 4.37113 -5.31138 
1667 1 6.68897 3.57001 -5.76643 
81 1 7.18771 3.81297 -5.09323 
2707 1 6.43149 3.20313 -4.73558 
1939 1 -6.50392 4.78191 -4.63801 
2200 1 -5.80755 4.97239 -5.30182 
59 1 -4.60903 4.02554 -5.63021 
1481 1 -4.50981 5.44873 -5.11534 
1652 1 -3.40791 5.19788 -6.73497 
2563 1 -3.56933 4.6345 -5.91737 
223 1 -3.60457 5.57589 -5.65306 
2033 1 -4.21676 6.07192 -4.6539 
1012 1 -2.07769 5.79611 -5.08949 
2865 2 -2.76081 4.47929 -5.04756 
3458 2 -2.99567 5.27823 -4.86335 
1665 1 -2.08605 4.88139 -5.61349 
1089 1 -1.0765 6.1819 -4.24812 
3207 2 -0.769286 5.34598 -5.61976 
3018 2 -0.884092 6.13157 -5.4681 
2630 1 0.0343175 5.12094 -6.48924 
341 1 -0.503146 5.23672 -4.49875 
486 1 0.0965355 4.68117 -4.93742 
1838 1 1.32418 5.5657 -5.03056 
492 1 2.29007 5.58227 -5.41137 
224 1 2.14838 6.3317 -5.04067 
1677 1 1.93982 4.79123 -5.04557 
916 1 5.13302 4.74772 -6.37317 
1382 1 4.76669 4.90403 -4.44985 
189 1 4.442 5.57005 -4.62851 
2113 1 4.38582 4.48641 -5.24287 
3257 2 5.59361 5.08458 -5.18676 
112 1 6.5527 5.62127 -5.16317 
302 1 6.45653 4.48413 -5.59923 
233 1 -5.65992 6.6975 -5.17584 
3147 2 -6.7839 5.68794 -5.53624 
1872 1 -6.2904 6.58693 -4.57905 
2045 1 -5.25936 5.82327 -5.43817 
2318 1 -4.8998 6.4264 -5.10654 
1235 1 -3.85887 6.33047 -5.48894 
754 1 -4.09823 6.94413 -4.30408 
246 1 -3.7033 -6.78777 -5.55785 
2002 1 -2.21223 -7.07206 -5.38486 
2988 2 -3.07873 6.06524 -4.63555 
582 1 -2.02167 -6.45749 -4.56008 
1499 1 -1.9971 6.58645 -5.05085 
3455 2 -0.89172 6.93111 -5.16979 
2392 1 0.362916 5.37491 -5.45107 
2096 1 0.203329 6.02195 -6.1743 
2080 1 0.698621 6.27569 -4.91562 
2524 1 0.106037 6.72925 -5.64613 
2429 1 1.4613 6.5933 -4.62902 
2978 2 1.0545 7.07034 -5.78871 
849 1 2.10998 7.17473 -4.7173 
799 1 3.39816 6.07902 -5.46459 
811 1 2.9536 6.80947 -5.14911 
696 1 4.19827 6.13214 -5.26999 
2315 1 3.8834 7.11282 -5.30289 
924 1 4.66462 6.74833 -5.7577 
2926 2 5.22383 6.41901 -4.77706 
2971 2 5.507 5.83587 -5.03636 
3330 2 -6.85788 6.60591 -5.49628 
610 1 6.86229 6.20924 -4.60663 
2191 1 -6.17076 -6.93555 -4.51494 
2473 1 -6.76101 -5.76682 -4.07861 
929 1 -6.36839 6.97526 -3.41131 
3228 2 -5.56506 -6.72272 -3.7468 
3375 2 -5.68561 -6.05693 -3.40559 
2283 1 -4.54043 -6.59409 -4.25987 
2835 2 -3.14308 -6.55653 -4.2853 
1864 1 -4.07911 -7.00509 -3.45132 
2089 1 -3.66898 -6.36249 -3.02096 
1187 1 -4.37701 -6.1575 -3.58675 
2496 1 -2.80853 -6.75898 -3.16709 
882 1 -2.71656 -7.10975 -2.40842 
647 1 -1.3032 -6.26692 -3.73849 
2626 1 -0.285417 -6.79446 -4.02867 
894 1 -1.05038 7.10719 -3.97289 
401 1 0.271882 6.9846 -4.69204 
3236 2 0.779469 -7.14159 -3.4278 
2038 1 -0.472555 -5.8412 -4.09431 
2969 2 0.580997 -6.44883 -3.27874 
1107 1 0.0944072 -6.63643 -4.93733 
635 1 1.73977 -6.91871 -3.80197 
3303 2 2.7697 -6.63676 -4.0095 
2918 2 2.64865 -6.05898 -3.58102 
2145 1 3.96304 -7.05335 -4.44148 
1442 1 3.6694 7.00676 -3.28218 
2566 1 3.04162 -5.89613 -4.87563 
2825 2 4.97421 -6.38901 -4.70842 
60 1 6.10007 -6.6663 -4.1061 
2469 1 3.81625 -5.99294 -3.97888 
451 1 5.63049 -5.66958 -3.53592 
698 1 -6.8613 -6.75561 -3.94672 
558 1 -5.92102 -5.3357 -4.45747 
316 1 -6.75325 -4.96286 -3.926 
1994 1 -4.80652 -5.44393 -3.80886 
1071 1 -4.98572 -4.73648 -4.5103 
2896 2 -5.78342 -5.19699 -3.30406 
3413 2 -3.46435 -5.90302 -4.11731 
1551 1 -5.60183 -4.02208 -4.19434 
3562 2 -3.62964 -5.07346 -4.01579 
2350 1 -2.4683 -5.32562 -4.41342 
322 1 -2.93727 -5.82032 -3.11563 
2052 1 -1.37982 -5.42301 -3.50378 
2228 1 -2.13389 -5.93024 -3.66546 
3285 2 -1.4773 -4.44144 -4.36632 
146 1 -0.840165 -5.84873 -3.09375 
1747 1 0.356297 -5.33756 -4.15857 
2491 1 1.43263 -6.06689 -4.14927 
1211 1 1.83249 -5.35231 -4.7252 
798 1 1.29751 -5.21249 -4.10457 
1799 1 1.36466 -5.76068 -3.37501 
3379 2 2.34373 -5.26925 -3.53994 
3230 2 2.28866 -4.50289 -3.46242 
281 1 3.82854 -5.08602 -3.58302 
3244 2 4.71296 -4.89705 -4.27871 
98 1 5.93947 -4.73892 -3.76178 
3340 2 4.92258 -5.69209 -4.31828 
742 1 5.31887 -4.8537 -3.26076 
893 1 6.80922 -5.20685 -3.79768 
2571 1 6.82672 -6.23886 -3.98634 
523 1 -6.40326 -3.59985 -4.47594 
1182 1 -6.84943 -4.09576 -3.9716 
1449 1 -6.33694 -4.49783 -4.59145 
2388 1 -4.89874 -3.48934 -3.59823 
1299 1 -4.96757 -4.42953 -3.73495 
1671 1 -4.27949 -3.35052 -5.13308 
3536 2 -3.90822 -4.39554 -3.88187 
3376 2 -3.82024 -3.63456 -3.7415 
1285 1 -2.18133 -4.86655 -3.53273 
2102 1 -2.59551 -4.32333 -4.14202 
1028 1 -2.06011 -3.86527 -3.29773 
842 1 -0.668059 -3.84195 -3.7108 
2916 2 -1.62483 -3.66415 -4.28359 
2139 1 -0.903231 -2.82285 -3.53796 
2238 1 -0.176533 -4.07557 -4.33154 
1683 1 0.538141 -4.47553 -4.00768 
1967 1 1.47292 -4.42038 -4.17679 
303 1 2.06081 -3.60537 -4.62955 
1215 1 2.76656 -4.14015 -4.3985 
3015 2 2.06818 -3.6247 -3.37561 
2306 1 3.78165 -4.29469 -4.88628 
2857 2 4.69308 -4.04925 -4.20844 
1160 1 3.5585 -4.05626 -4.04088 
1961 1 5.4789 -3.03261 -4.38349 
655 1 6.58148 -4.20031 -3.70161 
335 1 7.14576 -3.79383 -3.16889 
1325 1 -6.3198 -2.31539 -3.80429 
1282 1 6.89478 -1.13527 -3.76401 
844 1 -6.77309 -2.98167 -3.74221 
831 1 -5.64744 -3.11452 -3.81219 
935 1 -5.19517 -2.47491 -3.12998 
1835 1 -4.89789 -3.49164 -4.51552 
2674 1 -5.02438 -2.54345 -4.08658 
3083 2 -4.06257 -2.64884 -3.53963 
2400 1 -3.34708 -2.3562 -4.21709 
2766 2 -2.19373 -2.26332 -4.09031 
3198 2 -1.77604 -2.95085 -4.26071 
954 1 -1.17958 -2.02607 -3.62334 
2260 1 -1.17372 -3.46484 -3.02504 
15 1 0.432002 -3.45277 -3.88122 
2540 1 -0.28977 -2.04837 -3.75533 
2558 1 1.31768 -3.50757 -4.24956 
566 1 1.02592 -2.68438 -4.07666 
153 1 3.77902 -3.28676 -4.86973 
1911 1 1.70251 -2.48939 -4.60012 
3353 2 4.39129 -3.27785 -3.98465 
3134 2 4.04423 -2.58377 -3.87444 
1653 1 3.13462 -3.34893 -3.80734 
2299 1 5.15928 -2.28453 -3.69231 
3173 2 6.85122 -3.04859 -4.5972 
2858 2 6.47038 -2.45761 -4.43285 
960 1 7.08777 -2.08574 -3.70058 
753 1 6.42382 -3.12118 -3.62537 
1428 1 6.17225 -2.29228 -3.20753 
2054 1 -6.34597 -1.13501 -3.80162 
44 1 -6.92024 -0.402654 -3.66807 
423 1 7.10801 -1.00532 -4.44881 
1316 1 -5.60848 -1.64915 -3.67565 
56 1 -5.20135 -0.779352 -4.14461 
1343 1 -5.7719 -0.601896 -3.33969 
2132 1 -4.89958 -1.54529 -4.2182 
3229 2 -4.41558 -1.83124 -3.37253 
2302 1 -3.43225 -1.57834 -3.63326 
2278 1 -3.66623 -0.777523 -3.84888 
2789 2 -2.41273 -0.658101 -3.84222 
1127 1 -1.40143 -1.21645 -4.27942 
2748 2 -2.41032 -1.48023 -3.9043 
969 1 -1.31923 -1.5754 -5.05707 
370 1 -0.169906 -2.91381 -3.90263 
1491 1 -0.841463 -1.08094 -3.56853 
2411 1 1.86973 -1.50838 -4.18627 
886 1 1.1761 -0.875566 -4.53617 
1644 1 0.94438 -1.49931 -4.05535 
2407 1 3.37947 -1.40296 -4.88849 
665 1 2.66525 -1.69301 -4.08782 
891 1 3.00898 -2.40767 -3.5449 
876 1 1.98838 -0.641485 -3.9703 
941 1 2.85129 -0.829911 -4.44633 
2914 2 3.88761 -1.76607 -3.67149 
3483 2 3.69214 -0.973456 -3.52591 
1226 1 4.94335 -1.77827 -4.52187 
850 1 5.5561 -1.90032 -5.32017 
1788 1 4.87907 -1.383 -3.55175 
3116 2 6.00724 -1.85728 -4.27679 
2856 2 5.99692 -1.07564 -4.38611 
716 1 6.60915 -0.498213 -3.13801 
2541 1 -6.94955 0.671714 -3.3934 
723 1 6.76606 1.66858 -3.43604 
493 1 -6.30072 0.172874 -3.29086 
1781 1 -5.60801 0.032054 -3.90372 
500 1 -4.38153 -0.819753 -4.53608 
580 1 -3.8691 0.191437 -2.48337 
697 1 -3.81858 0.214322 -3.68014 
3490 2 -2.49576 0.0796087 -3.74259 
3588 2 -2.79995 0.887519 -3.56244 
913 1 -1.3526 -0.319365 -3.85198 
857 1 -1.55246 0.417989 -4.00682 
737 1 -1.41502 -0.603246 -3.12314 
3555 2 -0.425968 0.44627 -4.36655 
2237 1 0.337063 0.232011 -3.43893 
2020 1 -0.396691 -0.415398 -3.11252 
2187 1 1.31119 0.176004 -3.94265 
1971 1 0.650721 -0.628067 -3.82051 
583 1 0.550488 0.663991 -4.92481 
556 1 3.80965 -0.405876 -4.50317 
130 1 2.96347 -0.052401 -4.12819 
2068 1 4.73643 0.100464 -4.55443 
3305 2 3.79815 -0.0978086 -3.45648 
1340 1 4.83831 -0.619517 -3.96444 
873 1 4.7603 0.466516 -3.73943 
1514 1 6.93063 0.211228 -4.28215 
2902 2 5.86528 -0.335343 -4.00591 
1807 1 5.79283 0.176069 -2.80809 
3263 2 -6.58882 0.832352 -4.55738 
1627 1 -6.03206 1.32131 -3.04367 
3260 2 -6.61752 1.61062 -4.3266 
918 1 -5.86519 0.959779 -3.8101 
1910 1 -4.628 0.0366197 -4.15204 
1913 1 -5.63108 1.9342 -3.61233 
2077 1 -4.18908 1.53812 -3.61874 
412 1 -4.34008 0.800741 -3.98473 
1790 1 -4.17097 2.06154 -2.98321 
1531 1 -1.9031 1.96368 -3.57277 
3120 2 -2.94514 1.64619 -3.46867 
1198 1 -1.65168 1.15891 -3.53394 
3196 2 -0.748106 1.93174 -4.05089 
2950 2 -0.503413 1.10923 -4.03486 
1119 1 0.917195 0.849569 -4.07373 
14 1 0.487688 2.05968 -4.17965 
482 1 3.11464 0.910223 -4.66083 
2135 1 1.77398 1.1697 -3.64311 
2637 1 2.58805 0.996156 -4.07347 
2575 1 2.18897 1.93801 -3.53832 
504 1 3.86369 0.713577 -4.32171 
613 1 4.52497 1.38388 -3.38076 
1520 1 4.68277 1.22094 -4.42136 
2819 2 5.68961 0.503819 -4.01354 
3209 2 5.76315 1.25148 -3.76972 
1398 1 4.61946 2.0183 -4.57784 
253 1 6.82022 1.15187 -4.1552 
1684 1 6.72996 0.336509 -3.31987 
3033 2 -6.81452 2.29392 -4.03246 
2653 1 -5.62 2.45141 -4.34163 
3456 2 -4.71759 3.35883 -4.74735 
2448 1 -4.94927 1.42601 -3.98848 
896 1 -4.75888 2.30531 -3.73905 
1986 1 -2.60781 3.49 -4.1656 
1512 1 -3.79143 2.53285 -3.99933 
2177 1 -4.23202 3.02599 -3.28504 
966 1 -4.0306 3.50803 -3.92473 
1880 1 -2.91558 2.47648 -4.40915 
3372 2 -3.09946 2.38291 -3.11844 
2529 1 -1.3662 2.4364 -2.76788 
2663 1 -1.66574 3.64631 -4.53711 
2860 2 -0.733752 2.70823 -3.61596 
3006 2 -1.02908 3.47292 -3.73334 
1486 1 0.246552 2.11185 -3.31431 
603 1 0.347193 1.47649 -4.75955 
1375 1 1.19707 1.82659 -3.54028 
3063 2 1.44425 2.16983 -4.5293 
3479 2 1.20324 2.95925 -4.4208 
204 1 1.80224 1.82314 -2.65736 
268 1 2.47097 2.92173 -3.90107 
1574 1 3.52132 2.58627 -4.03723 
1402 1 3.89425 3.19873 -3.65717 
47 1 2.86418 1.92863 -4.25146 
167 1 3.72155 1.65113 -4.25743 
1513 1 4.43069 2.87318 -4.27888 
3369 2 5.64091 2.01125 -3.62198 
2976 2 5.26952 2.64716 -3.2721 