ITEM: TIMESTEP
15600
ITEM: NUMBER OF ATOMS
3594
ITEM: BOX BOUNDS pp pp pp
-7.1961255899038203e+00 7.1961255899038203e+00
-7.1961255899038203e+00 7.1961255899038203e+00
-7.1961255899038203e+00 7.1961255899038203e+00
ITEM: ATOMS id type x y z 
1437 1 -6.92523 -6.62621 -6.62697 
2045 1 -6.28475 -6.17384 -6.04002 
2023 1 -5.93434 -6.8937 -6.72571 
3477 2 -4.88282 -7.0628 -6.14635 
1415 1 -5.27153 -6.96932 7.119 
2612 1 -3.9735 -6.27047 -6.97142 
1654 1 -3.70127 -7.11194 -7.07267 
977 1 -3.74391 -7.07817 -6.26004 
601 1 -4.84115 -6.28829 -6.96814 
2944 2 -2.85494 -6.70726 -6.43092 
3574 2 -2.99588 -5.7825 -6.41163 
360 1 -2.06654 -5.28532 7.00911 
2627 1 -1.79276 -5.97234 -6.71403 
26 1 -1.39895 -6.84221 -6.30845 
3368 2 -0.720428 -5.68136 -6.88617 
1210 1 -0.979492 -6.06934 -5.88329 
1088 1 0.505598 -6.25367 -6.52086 
1634 1 0.934243 -6.69747 -6.9911 
2415 1 1.81001 -6.7043 -6.60689 
245 1 2.41638 -6.67701 -6.01726 
3442 2 3.36455 -6.5538 -6.24933 
209 1 4.36917 -6.37364 -6.86478 
645 1 4.28556 -5.36647 -7.15967 
3208 2 5.74613 -6.76077 -7.00575 
1258 1 6.83403 -7.12286 7.1392 
1954 1 6.70882 -6.20711 -7.08702 
2051 1 6.85823 -6.01782 -6.288 
3495 2 -6.82482 -5.27819 7.17107 
355 1 -6.21246 -4.43221 -6.20261 
639 1 -6.95489 -5.38436 -6.1672 
1246 1 -5.70752 -6.01931 -6.76981 
1282 1 -6.00073 -5.10627 -6.54001 
2122 1 -4.72915 -5.46897 -6.62689 
1361 1 -4.05132 -5.98086 -6.18712 
1087 1 -4.69589 -4.39954 -6.28271 
2981 2 -2.87972 -4.98547 -6.24848 
386 1 -4.11481 -4.90702 -6.78039 
3061 2 -3.22758 -4.34847 -6.05173 
3019 2 -0.86238 -4.89572 -6.80668 
2543 1 -1.88679 -5.01258 -6.71711 
1905 1 0.359184 -5.93 7.01643 
2368 1 0.230357 -5.04777 7.13843 
842 1 0.0195151 -4.58982 -6.10023 
527 1 0.250908 -5.54626 -6.19131 
40 1 1.32807 -5.89228 -6.5016 
579 1 0.902988 -5.11491 -6.5345 
1073 1 2.21594 -5.97197 -6.49359 
2957 2 3.18412 -5.87569 -6.02568 
2933 2 2.91931 -5.08472 -5.94231 
1215 1 4.28265 -5.37383 -6.13774 
628 1 4.62766 -6.17272 -6.11668 
1770 1 3.6237 -5.06516 -6.82621 
2812 2 5.49749 -6.04978 -6.7267 
3212 2 5.41919 -5.20162 -6.53531 
10 1 6.48865 -5.31001 -6.90918 
1373 1 6.81889 -4.90815 -6.15117 
1354 1 -6.00039 -2.8911 -6.94484 
3029 2 -6.88891 -4.53092 7.14548 
304 1 -6.07482 -3.4583 -6.34492 
1459 1 -5.88136 -4.10388 -7.03703 
923 1 -5.28959 -4.79221 -6.93244 
1671 1 -5.40236 -3.78501 -6.52837 
2699 1 -4.07052 -3.80835 -6.70562 
1800 1 -4.63826 -3.35526 -5.89392 
2706 1 -3.02303 -3.52771 -6.99921 
2549 1 -2.06831 -4.06176 -6.07599 
3041 2 -3.15169 -3.48212 -5.86074 
2114 1 -3.55308 -4.36181 7.1078 
1840 1 -2.21515 -4.12826 -6.97992 
3484 2 -0.87758 -4.18925 -6.71846 
2808 2 -0.887759 -3.44317 -6.56572 
2589 1 0.097211 -4.18551 -6.97131 
502 1 0.772102 -4.34158 -6.47818 
3158 2 1.23157 -3.85352 7.00253 
799 1 1.69123 -4.39115 -6.22781 
1168 1 2.73602 -5.13677 7.15232 
1425 1 2.0816 -5.09099 -6.68695 
1738 1 2.38059 -4.25357 -6.91283 
2407 1 3.22109 -4.04459 -6.92608 
3249 2 3.22941 -4.41376 -5.81039 
1695 1 4.27599 -4.22457 -5.87021 
2631 1 3.96495 -4.25987 -6.62011 
1976 1 4.36746 -2.76757 7.1956 
3266 2 5.13385 -4.51301 -6.45261 
2767 2 5.24593 -3.79127 -6.48206 
2479 1 6.29399 -4.33181 -6.52003 
2975 2 -7.1687 -4.04075 -6.84638 
1362 1 5.7057 -4.27557 -5.56536 
1392 1 -6.17112 -2.23528 -6.27938 
2126 1 -6.67743 -1.27643 -6.82824 
670 1 -6.63414 -2.84531 -5.89662 
2074 1 -6.29611 -2.1466 -7.17355 
83 1 -4.90144 -2.11516 -5.5928 
1581 1 -5.35322 -2.67856 -6.34353 
1315 1 -4.52596 -2.03769 -6.44479 
1445 1 -4.36752 -2.93466 -6.53898 
1370 1 -3.58252 -2.76127 -6.96723 
433 1 -1.86645 -3.02629 7.16977 
2289 1 -2.66138 -2.57802 -6.86585 
37 1 -2.14989 -3.25788 -6.46325 
3332 2 -1.11551 -2.72611 -6.32442 
3234 2 -1.54626 -2.06001 -6.2865 
1106 1 -0.183781 -2.26723 -6.85375 
2187 1 0.479407 -3.55792 -6.00886 
2599 1 2.33647 -3.41896 -6.62517 
3503 2 1.13354 -3.07815 -7.17038 
3347 2 1.03558 -2.34488 -6.99905 
250 1 0.788155 -2.80451 -5.85108 
84 1 1.66627 -2.49679 -6.15792 
1635 1 2.24144 -2.30604 -6.68834 
985 1 3.10663 -3.21456 -6.7171 
1834 1 2.99852 -2.43253 -6.40927 
2500 1 3.81183 -2.30065 -6.58468 
388 1 3.90011 -3.21022 -6.60402 
2183 1 5.19421 -2.05599 -6.99065 
3550 2 5.0026 -2.96998 -6.10175 
2972 2 4.69601 -2.18398 -6.0953 
284 1 6.2282 -3.45441 7.11066 
3126 2 -7.05572 -3.26752 -6.87694 
1372 1 6.13657 -2.61283 -6.12996 
1340 1 -6.39905 -0.983921 -6.02743 
2510 1 -6.7791 -0.355621 -6.60906 
2132 1 -5.68155 -1.62794 -5.87366 
3360 2 -5.48132 -1.31558 -7.05092 
2578 1 -4.90943 -1.22984 -5.91548 
911 1 -4.04761 -1.98097 7.16482 
1457 1 -4.17293 -1.30184 -6.53281 
821 1 -2.62894 -2.29672 -6.17314 
395 1 -3.35901 -1.90459 -6.65293 
1790 1 -2.35039 -2.17078 -5.3843 
3105 2 -1.26543 -1.38044 -5.9858 
900 1 -2.32098 -1.53951 -6.94825 
1094 1 -0.354697 -1.32758 -6.63281 
2804 2 0.673742 -1.55177 -6.87396 
1993 1 -0.827397 -0.619737 -6.98627 
1374 1 2.10094 -1.39591 -6.71875 
925 1 1.57185 -1.3802 -6.12385 
2390 1 1.96186 -1.87427 6.86077 
2558 1 2.84012 -1.41775 -6.36016 
2535 1 3.01845 -0.471515 -6.16124 
1698 1 3.6449 -0.475455 -6.6367 
2617 1 3.63337 -1.48201 -6.15538 
377 1 5.72707 -1.85916 -6.13359 
366 1 4.20474 -1.26093 -6.94012 
1806 1 5.96606 -1.91666 -7.00352 
2477 1 4.98753 -1.04766 -6.94234 
3087 2 7.06914 -2.52316 -6.86971 
2840 2 6.84414 -1.75949 -6.36745 
1369 1 -6.90863 0.602135 -6.41398 
1841 1 -6.44723 0.0212052 -5.89561 
1402 1 -6.92369 -0.231447 -5.46765 
3097 2 -5.44489 -0.679921 -6.90462 
3127 2 -5.66492 0.0164044 -6.78304 
2641 1 -4.76308 -0.327985 -5.90611 
1027 1 -4.58705 0.193736 -6.96956 
499 1 -4.56774 0.587532 -5.97463 
2300 1 -4.26298 -0.278985 -6.48239 
1815 1 -3.35884 -0.548563 -6.2666 
2180 1 -3.63502 0.490803 -6.1771 
174 1 -2.2214 -0.663434 -6.98402 
3200 2 -1.81957 -0.888244 -5.82011 
743 1 -1.50536 -0.131322 -6.97253 
28 1 -0.808797 0.243947 -6.06907 
3151 2 0.586476 -0.651871 -6.73742 
3088 2 0.405828 0.0780849 -6.5715 
1978 1 -0.91433 0.491906 -6.86831 
1241 1 1.29604 0.376867 7.0679 
1777 1 1.2452 -0.646571 -5.7785 
2960 2 2.47521 0.582015 -7.02847 
42 1 2.20657 -0.457268 -6.29015 
530 1 2.16338 0.420906 -6.01953 
175 1 1.47413 -0.0629917 -6.57253 
2530 1 5.3708 0.3535 -5.96734 
2380 1 3.9116 0.229885 -7.13206 
2730 1 2.98803 0.327337 -6.03008 
1895 1 4.73572 -0.179664 -6.90698 
1414 1 5.45067 -0.976311 -6.25102 
263 1 5.47336 -0.0378305 -6.68523 
1092 1 5.81553 -1.10632 -7.08499 
2797 2 6.58188 -1.075 -6.19582 
3135 2 6.50415 -0.331356 -6.22016 
806 1 -6.52979 1.28919 -5.75921 
3140 2 -5.76395 1.48045 -6.60723 
3007 2 -5.65066 0.733008 -6.59674 
2523 1 -4.2926 2.16086 -5.90641 
625 1 -4.57916 0.963006 -6.71496 
2560 1 -4.18144 1.35237 -6.07481 
3148 2 -3.5401 1.52931 -6.9194 
1833 1 -3.7751 2.83172 -5.72959 
2320 1 -3.32625 1.37776 -5.71774 
1116 1 -2.74491 1.15221 -6.36215 
2037 1 -2.54087 2.0722 -6.48028 
1965 1 -3.14318 2.19943 -5.89307 
1265 1 -1.64989 0.861361 -6.66786 
1257 1 -0.955778 1.09142 -5.93474 
1353 1 -1.4167 1.72912 -6.56402 
3311 2 0.324797 0.791606 -6.38761 
2928 2 0.0594779 1.43985 -6.17433 
1161 1 -0.568252 1.22068 -7.12022 
1368 1 1.08507 1.29447 7.00627 
171 1 1.33801 1.12444 -6.63047 
3459 2 2.47624 1.37843 -6.92371 
1176 1 2.353 2.3215 -5.52866 
1997 1 2.27695 1.2536 -5.68613 
2086 1 4.61816 0.695042 -6.48002 
850 1 3.19782 1.28035 -5.94649 
50 1 3.94128 1.46861 -6.17501 
565 1 3.60855 0.648874 -6.52291 
2068 1 5.33374 1.01024 -5.25686 
2445 1 5.51735 1.01328 -6.66871 
2151 1 -7.0402 1.82658 -6.34987 
122 1 6.69692 1.75132 -6.86988 
3038 2 6.44411 0.550162 -6.0228 
1455 1 -6.7838 2.18017 7.18519 
3465 2 -5.91394 2.26027 -6.29519 
2685 1 -4.93432 3.02708 7.02264 
2386 1 -4.77579 1.88739 -6.67826 
3093 2 -3.63881 2.3049 -6.93241 
1224 1 -4.50425 3.13928 -5.85002 
732 1 -2.94226 3.09906 7.08352 
561 1 -1.86871 2.63669 -6.36101 
2505 1 -3.63643 3.54622 6.44216 
1056 1 -1.42282 3.82311 -5.35805 
1933 1 -1.24259 2.97658 -6.00452 
1932 1 -0.651738 3.17634 -6.88686 
1817 1 -0.683327 2.18974 -6.8346 
3078 2 0.0102868 2.25948 -6.13186 
221 1 1.00202 1.95829 -6.68752 
673 1 0.894083 2.78983 -6.25207 
3417 2 2.01019 2.63954 -6.66233 
3393 2 2.46725 2.08676 -6.73814 
324 1 2.89608 3.93332 -5.89867 
588 1 3.68148 2.72982 -6.69908 
1286 1 3.17963 2.26037 -5.91598 
2231 1 4.68671 2.81667 -5.56236 
2765 2 4.48703 2.96602 7.04702 
1113 1 4.51442 2.33521 -6.32108 
889 1 5.51245 2.20917 -6.57903 
2377 1 5.90824 1.71709 -7.13214 
2072 1 4.90052 1.47681 -6.01945 
2305 1 6.3786 2.57493 -6.77983 
131 1 -7.12331 2.63669 -6.70902 
2736 2 -6.10456 3.03347 -6.23705 
3238 2 -6.47077 3.64206 -6.11697 
577 1 -6.81784 3.68858 6.32656 
115 1 -7.13655 4.13611 -7.04433 
2010 1 -5.13413 3.68414 -6.36388 
141 1 -5.10945 2.86628 -6.57114 
1631 1 -5.13622 4.0531 7.00975 
2783 2 -3.89002 3.06774 -6.837 
3408 2 -3.84359 3.8248 -6.67773 
3411 2 -4.24769 4.4196 -6.68475 
1499 1 -1.08921 3.85927 -6.45563 
1894 1 -1.90537 3.63259 -6.20544 
2576 1 -2.96564 4.19393 -7.18089 
989 1 -2.84183 3.78787 -6.4488 
2839 2 -2.03248 4.64759 7.19512 
1623 1 -0.723471 4.23027 6.70509 
474 1 -0.343439 4.0925 -6.98149 
2508 1 0.192549 3.20434 -6.94294 
2522 1 0.840701 3.57808 -6.64457 
1016 1 1.10233 4.24005 7.14064 
3478 2 1.8681 3.40084 -6.50179 
3466 2 1.87433 4.21227 -6.45979 
2000 1 1.41814 2.98402 6.90357 
430 1 3.0096 4.31101 -6.63329 
614 1 3.72749 4.33749 -6.02101 
96 1 3.04431 3.39186 -6.81935 
268 1 3.77591 3.31029 -6.08152 
3551 2 4.09623 3.96408 -6.94873 
2066 1 4.72008 3.46675 -6.06557 
2711 1 5.19307 4.61149 6.90212 
1927 1 5.22884 2.8885 -6.68021 
404 1 6.0143 3.31696 -6.69003 
718 1 -6.28252 4.11348 7.11497 
2160 1 6.03857 5.42636 -6.37227 
112 1 6.83991 4.69773 -6.68369 
789 1 -5.66101 4.41121 -6.71273 
1879 1 -6.26424 5.05563 -6.76269 
3471 2 -4.45543 5.20603 -6.45107 
59 1 -3.22498 5.54631 -6.0448 
1102 1 -3.26531 4.98052 -6.68312 
883 1 -2.34514 5.41454 -5.76698 
2832 2 -2.29187 5.48415 -6.85908 
1744 1 -2.37961 4.40304 -6.09587 
2630 1 0.115578 5.54228 -6.8303 
1652 1 -0.750861 5.93833 -6.30305 
2626 1 -0.549183 4.96089 -6.65851 
849 1 0.268052 5.94306 -5.93321 
2429 1 0.268518 4.48974 -6.6803 
3138 2 1.69446 4.91759 -6.23287 
2322 1 0.818891 5.24241 -6.95578 
1923 1 2.84084 5.09112 -6.56149 
3223 2 4.11743 4.83878 -6.95529 
2790 2 3.93355 5.68421 -6.74068 
1247 1 5.20497 4.03386 -6.79454 
255 1 5.24331 6.15732 6.12571 
795 1 5.97222 4.4564 -6.63068 
865 1 5.36819 5.19185 -6.84597 
2088 1 4.96633 5.80099 6.81773 
2546 1 6.67544 4.32276 -5.91493 
558 1 -6.94424 6.7982 -6.65261 
1616 1 -5.88099 6.65961 -6.43709 
66 1 -6.37391 6.09553 -6.83879 
2662 1 -4.72074 6.12303 6.89364 
2396 1 -5.43328 6.37423 -7.04653 
1004 1 -5.6417 5.54226 -6.3794 
3463 2 -4.67887 5.9191 -6.16965 
3150 2 -4.63695 6.67499 -6.24494 
1619 1 -3.47136 6.63423 -5.66739 
3454 2 -2.49284 6.35514 -6.92326 
3268 2 -2.58862 7.08382 -6.67326 
345 1 -1.28371 6.7608 -6.8568 
2326 1 -1.56736 6.6143 -6.0927 
448 1 -1.65682 -6.82011 -7.16099 
1567 1 -0.446144 -6.80715 -6.2094 
1702 1 -0.497975 6.69074 -6.29378 
1333 1 0.351167 7.19501 -6.41712 
798 1 0.573704 6.28367 -6.86067 
1685 1 1.18082 6.88224 -6.91353 
725 1 1.72341 5.96658 -7.1025 
486 1 2.63617 5.89473 -6.36424 
686 1 2.11247 6.98452 -6.95544 
1538 1 2.42838 6.33203 -7.12327 
3569 2 3.50017 6.37832 -6.51089 
3587 2 3.58898 7.11365 -6.4097 
589 1 5.26344 -6.96735 -5.9982 
302 1 4.58501 6.41053 -5.90571 
1724 1 4.62739 7.03309 -6.36324 
2787 2 5.65552 6.77404 -7.08957 
274 1 5.33222 5.97284 -6.30183 
2136 1 6.61654 -6.92825 -6.33932 
1051 1 5.71656 6.68191 -6.04964 
244 1 6.61573 6.38984 -6.46592 
2574 1 -5.91844 -7.08124 -5.6777 
3487 2 -7.06958 -6.81197 -5.45178 
3520 2 -4.95789 -6.45481 -5.75791 
1718 1 -6.05274 -6.33611 -5.14333 
1490 1 -5.76454 6.70764 -5.16682 
1691 1 -3.66729 -6.52234 -5.67164 
1772 1 -5.50282 -6.65999 -4.68596 
1227 1 -2.76616 -7.07038 -5.40308 
356 1 -2.88467 -6.26718 -5.37874 
1252 1 -2.15339 -6.91627 -4.5378 
1836 1 -2.03703 -5.7149 -5.61349 
3594 2 -1.17946 -6.13685 -4.80754 
3455 2 -1.13489 -6.83732 -4.89672 
1881 1 -0.042713 -6.62551 -4.73558 
1382 1 0.784982 -6.61962 -4.5354 
3128 2 1.06942 -6.40753 -5.47582 
2978 2 1.26762 -7.09226 -5.69235 
1416 1 1.85079 -6.48767 -4.61812 
2256 1 2.233 -5.95773 -5.65975 
862 1 1.4253 7.05366 -4.4098 
1992 1 2.44829 -6.79121 -5.16915 
1689 1 2.04056 6.93559 -5.07343 
893 1 3.73212 -6.84168 -4.88161 
492 1 3.97015 6.63795 -5.30007 
281 1 4.44591 -6.98048 -5.48843 
329 1 5.97872 -6.95093 -5.60939 
317 1 5.94334 -6.07659 -5.13975 
2015 1 -7.02501 -4.44647 -5.67816 
1872 1 -6.41906 -5.05901 -5.48307 
1673 1 -6.13374 -5.46159 -4.634 
3416 2 -5.2352 -5.73022 -5.72021 
3325 2 -5.50283 -5.01845 -5.71694 
1725 1 -4.30481 -6.34586 -4.85418 
2727 1 -4.47187 -5.40741 -4.7856 
1784 1 -4.16922 -5.17096 -5.96819 
1344 1 -3.71159 -5.58482 -5.31021 
909 1 -2.63047 -4.3766 -4.79167 
2426 1 -3.51359 -4.80479 -5.09528 
1582 1 -1.46724 -5.20721 -5.88102 
520 1 -2.78713 -5.413 -5.24109 
3322 2 -1.32444 -5.45078 -4.58439 
3480 2 -1.33837 -4.69033 -4.61185 
722 1 -2.19254 -4.76727 -5.28137 
2491 1 -0.523944 -5.21631 -5.68796 
1643 1 -0.102879 -6.09378 -5.75962 
2826 2 1.03413 -5.61243 -5.36443 
2113 1 1.91451 -5.1652 -5.68002 
2145 1 3.14433 -5.01302 -4.60275 
1075 1 2.42533 -5.54879 -4.85083 
1998 1 1.69368 -5.3686 -4.54519 
2462 1 4.18157 -6.10344 -5.38295 
665 1 3.70567 -5.53152 -4.99014 
847 1 4.21035 -4.97971 -5.3731 
2656 1 5.21588 -5.17063 -5.28982 
85 1 5.36861 -6.12402 -5.60351 
1000 1 5.90042 -5.46484 -4.63886 
1263 1 6.11692 -5.99256 -5.90808 
2828 2 7.04638 -6.06517 -5.14825 
3010 2 7.02516 -5.2907 -4.95725 
1526 1 6.15257 -5.09418 -5.70789 
472 1 -6.32372 -4.31993 -4.81641 
659 1 -6.47852 -3.86159 -5.51156 
2912 2 -5.3939 -4.29263 -5.40316 
1071 1 -4.18717 -4.05683 -5.6304 
477 1 -4.37032 -2.81276 -5.22162 
2139 1 -2.30826 -3.62424 -5.1936 
2248 1 -3.40676 -3.84897 -4.97269 
128 1 -2.1122 -2.92555 -5.61445 
2238 1 -1.06742 -4.5135 -5.73466 
995 1 -1.42642 -3.77986 -5.46719 
15 1 -0.10631 -5.78411 -5.0358 
139 1 -0.334082 -3.8248 -5.89001 
1722 1 -0.406719 -4.40142 -5.29493 
2178 1 1.51031 -3.35203 -6.18631 
3068 2 0.735389 -4.93029 -5.36694 
2768 2 0.769054 -4.08773 -5.07191 
891 1 1.80815 -4.22793 -5.31202 
3014 2 2.7185 -3.76489 -5.6649 
1237 1 2.0286 -3.5943 -4.52008 
1385 1 5.1037 -4.3798 -5.16689 
2150 1 3.75459 -4.34184 -4.87614 
1034 1 5.50773 -3.55258 -4.54958 
802 1 6.45215 -3.85614 -5.63025 
351 1 7.15426 -3.41284 -5.70026 
1320 1 5.82135 -4.60182 -4.53968 
3080 2 6.86053 -4.42609 -4.79812 
3173 2 6.70479 -3.57329 -4.6685 
346 1 -6.90438 -2.49139 -5.09594 
720 1 -6.71406 -2.04959 -5.75504 
2737 2 -5.42826 -3.52667 -5.39469 
2890 2 -5.62295 -2.74827 -5.21103 
1465 1 -4.21511 -3.7421 -4.94446 
56 1 -4.66832 -2.00807 -4.84428 
2869 2 -3.42015 -2.65137 -5.76368 
2844 2 -3.64825 -1.81678 -5.62324 
484 1 -1.72437 -2.45856 -5.09847 
871 1 -2.88895 -2.06944 -4.64598 
2480 1 -0.815364 -2.95438 -4.45502 
1953 1 -1.25401 -3.08024 -5.17301 
2105 1 -0.0426176 -2.43352 -6.03138 
1767 1 -0.365337 -3.05273 -5.4148 
3227 2 0.520855 -3.37451 -4.87943 
3430 2 0.38349 -2.56793 -4.73641 
202 1 1.43705 -2.41582 -5.23497 
1611 1 1.62782 -3.2185 -5.331 
2830 2 2.78246 -3.02534 -5.35247 
3356 2 2.46939 -2.36766 -5.4186 
1472 1 3.57924 -3.37852 -4.79765 
1859 1 3.75279 -2.44012 -5.59477 
1313 1 3.84965 -3.26201 -5.84534 
72 1 4.31935 -2.46037 -4.96706 
190 1 4.48971 -3.56673 -5.18077 
452 1 5.81202 -3.40023 -5.3068 
1788 1 6.26182 -3.37636 -6.37819 
1207 1 6.71511 -2.52518 -5.70644 
2858 2 6.66373 -2.81358 -4.77796 
1999 1 -7.16379 -1.69358 -5.0046 
2993 2 -6.08802 -1.41605 -4.80318 
1145 1 -6.97089 -1.03412 -5.56755 
2974 2 -5.84166 -2.11791 -4.85142 
1514 1 -5.1314 -1.09736 -5.08995 
808 1 -4.45857 -1.28767 -4.39863 
3543 2 -4.00401 -1.27734 -5.3368 
2718 1 -2.76628 -1.38491 -6.19897 
1928 1 -2.6099 -1.39504 -5.15121 
2077 1 -1.91415 -0.69958 -4.80464 
111 1 -2.86252 -0.712832 -4.65699 
1057 1 -0.727563 -2.15157 -5.33855 
1380 1 -1.67184 -1.59259 -4.95808 
1618 1 0.328939 -0.883964 -5.62355 
2108 1 -0.47587 -0.604995 -6.19955 
1946 1 -0.175916 -1.58082 -5.88357 
1837 1 0.667101 -1.79609 -5.84661 
2434 1 1.03055 -0.840102 -4.87235 
3557 2 2.34679 -1.59204 -5.31896 
483 1 3.4679 -0.875755 -5.43033 
2995 2 4.61435 -1.32215 -5.86284 
2336 1 3.39887 -1.50523 -4.60359 
859 1 3.49231 -1.77677 -5.4022 
3317 2 4.41134 -0.557687 -5.85067 
148 1 5.14865 -0.887974 -4.87784 
2352 1 5.32067 -1.74758 -5.15361 
1703 1 5.12218 -2.79752 -4.69425 
734 1 5.64961 -2.427 -5.28852 
656 1 6.36589 -1.72013 -5.27217 
1568 1 6.89435 -0.914145 -4.90302 
3267 2 -6.13936 -0.650529 -4.74401 
1200 1 -7.07556 0.573239 -5.3217 
194 1 -5.62816 -0.57485 -5.77802 
90 1 -5.3336 0.260175 -5.57676 
385 1 -5.02854 -0.245913 -4.9647 
3256 2 -3.91411 -0.478045 -5.34509 
3144 2 -3.94514 0.319881 -5.11603 
1238 1 -2.68753 0.074787 -6.44679 
580 1 -2.95263 0.462283 -5.44223 
827 1 -2.85364 -0.491572 -5.64362 
2796 2 -1.80769 -0.118103 -5.82576 
1074 1 -0.860379 -0.0744606 -5.30113 
1880 1 -1.22819 0.80552 -4.82882 
1531 1 0.0348518 0.0551575 -5.44875 
75 1 -0.33292 0.834894 -5.3365 
1890 1 0.890408 0.0958969 -5.46049 
1432 1 0.60482 0.696329 -4.96191 
3449 2 2.33541 -0.86407 -5.2004 
886 1 3.10941 0.0140999 -5.23959 
3383 2 1.99351 -0.190319 -5.01612 
2848 2 4.11185 0.277053 -5.62749 
3364 2 4.09234 0.963291 -5.18287 
1337 1 3.55555 -0.278331 -4.58694 
140 1 5.50883 -0.303683 -5.59393 
1830 1 6.03829 -0.883964 -5.17719 
2130 1 6.17647 0.15944 -5.15851 
34 1 6.92587 6.17859e-06 -4.86132 
443 1 -5.10234 1.26255 -5.78483 
1151 1 -5.96022 0.702612 -5.42793 
3263 2 -6.32664 0.819826 -4.50582 
408 1 -5.51105 1.53898 -5.24579 
3062 2 -4.23263 1.85834 -4.88124 
2861 2 -4.29691 1.0228 -5.08951 
1483 1 -3.28817 2.06145 -5.03738 
2846 2 -2.07589 1.59073 -5.45642 
2601 1 -3.13952 1.20821 -4.70162 
969 1 -2.33034 0.0145836 -4.87063 
2939 2 -1.9562 0.744317 -5.67048 
1775 1 -1.72509 1.26508 -4.23013 
2208 1 -1.00085 2.02753 -5.59028 
2489 1 -0.920441 1.62817 -4.99642 
867 1 0.267316 1.60987 -5.05053 
1713 1 1.3943 0.746532 -5.94775 
3443 2 1.80942 0.580021 -4.77465 
2406 1 0.890912 1.4416 -5.54083 
3241 2 1.68979 1.33374 -4.85015 
1185 1 2.94319 0.980015 -5.1458 
3388 2 4.04907 1.74205 -5.0141 
1398 1 4.99551 1.97178 -5.36263 
941 1 6.16174 1.05542 -4.88489 
2327 1 6.74511 1.54598 -4.17322 
823 1 5.25866 0.226035 -4.7988 
13 1 7.16629 1.51225 -5.29713 
698 1 6.89304 0.945087 -4.74099 
92 1 -6.63535 2.6781 -5.18303 
2690 1 7.12601 2.58491 -5.70046 
2541 1 6.79257 3.43353 -5.99354 
1607 1 -6.43937 1.94454 -5.28108 
1335 1 -5.0453 2.33154 -5.64319 
2200 1 -5.5156 3.3636 -5.41374 
2061 1 -5.75158 2.56836 -4.91593 
668 1 -3.2473 3.43324 -5.982 
2845 2 -4.52722 2.74059 -4.67662 
343 1 -2.69162 2.91025 -6.43995 
2490 1 -3.41904 3.00579 -5.0264 
3117 2 -2.21429 2.40065 -5.2464 
2945 2 -2.40825 3.22199 -5.29234 
2647 1 -1.23916 2.80168 -5.25872 
1002 1 -1.41822 2.32781 -4.46883 
1132 1 -1.57601 3.25369 -4.54356 
3444 2 -0.131795 3.08287 -5.95187 
2708 1 0.545752 2.48717 -5.0708 
1661 1 -0.326125 2.3805 -4.8846 
970 1 1.58549 1.61528 -6.08248 
1375 1 1.1543 2.13549 -5.76399 
2271 1 0.867339 3.26796 -5.49231 
785 1 2.96237 3.15006 -6.03443 
2575 1 2.80216 1.77957 -4.87662 
47 1 1.62404 2.81164 -5.47828 
1644 1 2.48736 3.19409 -5.33334 
3433 2 3.78148 2.53299 -5.20338 
2894 2 3.56123 3.31829 -5.01718 
2584 1 5.70495 1.79519 -4.73893 
1466 1 6.05906 2.47598 -4.35705 
1883 1 5.05128 2.63235 -4.6549 
3060 2 6.39766 1.24166 -5.9775 
3414 2 6.08033 1.95 -5.75526 
1169 1 6.72328 2.1144 -4.84648 
1939 1 6.69272 3.02307 -4.77973 
60 1 7.14916 3.63326 -5.23653 
928 1 -6.25113 3.70894 -4.77043 
1669 1 -4.79746 3.99843 -5.67067 
3456 2 -4.69032 3.605 -4.61027 
2495 1 -3.54432 3.77593 -4.2497 
2687 1 -3.81762 3.79154 -5.3451 
2466 1 -4.05606 4.55354 -4.54859 
2977 2 -2.72657 4.01273 -5.09901 
1521 1 -0.124793 4.28728 -4.36476 
353 1 -0.760313 3.71848 -4.54824 
597 1 -1.27934 4.67668 -6.32671 
46 1 -0.459967 3.10851 -4.95785 
2813 2 -0.331251 3.84971 -5.66618 
2176 1 0.239313 5.01676 -4.69549 
3378 2 -0.459595 4.66744 -5.50185 
1201 1 0.486786 3.90101 -4.81995 
894 1 0.761456 4.04714 -5.93997 
1639 1 1.55671 3.77712 -5.51945 
23 1 1.60519 4.45125 -5.12024 
482 1 2.30336 3.87877 -4.99253 
3013 2 3.50854 4.17057 -4.89714 
2414 1 4.62013 3.57554 -4.85295 
2814 2 3.30168 4.8465 -4.68347 
2092 1 4.44739 4.15604 -5.61608 
3298 2 5.93503 2.9224 -5.57024 
2917 2 5.64188 3.67701 -5.53429 
2317 1 5.5404 3.21956 -4.45619 
1760 1 -6.73517 3.28767 -7.10556 
2594 1 6.87291 3.49076 -6.95537 
462 1 6.57536 4.12901 -4.66477 
3045 2 -6.50725 4.37828 -5.96705 
3147 2 -6.652 5.25417 -5.7037 
491 1 -6.7593 4.37731 -4.95718 
1318 1 -5.45625 4.83548 -5.9971 
2308 1 -5.65493 5.25974 -5.12378 
822 1 -5.72536 4.24519 -5.11153 
1543 1 -4.83061 4.90733 -5.39373 
1030 1 -3.24821 4.53473 -5.94515 
2376 1 -4.17552 5.48115 -4.74412 
715 1 -3.9955 4.82737 -5.47586 
2865 2 -2.8325 4.82953 -4.92207 
3458 2 -2.84368 5.61787 -4.83189 
1253 1 -1.55424 5.77263 -6.03969 
197 1 -1.7175 4.90488 -5.41109 
786 1 -1.78164 6.03612 -5.22273 
1486 1 0.50748 5.07912 -6.15243 
3392 2 -0.711362 5.38778 -5.29911 
3207 2 -0.518596 6.28371 -5.11419 
2831 2 1.63951 5.69076 -6.07775 
586 1 0.903098 4.77827 -5.37124 
2038 1 0.273252 5.99963 -4.42424 
1141 1 0.638785 5.62686 -5.25652 
825 1 2.54044 4.54567 -5.47947 
1422 1 2.31494 5.08475 -4.93469 
1066 1 3.07974 5.14519 -5.73168 
924 1 1.40342 5.3962 -5.00338 
2172 1 4.59133 4.72768 -5.09168 
908 1 4.88488 4.78988 -6.25619 
2028 1 4.00314 5.08939 -5.74405 
2927 2 5.70481 4.45231 -5.43189 
3257 2 5.64429 5.15226 -5.36384 
1667 1 6.49653 5.47845 -5.65909 
1060 1 6.84453 4.77522 -5.07408 
2539 1 6.60342 5.49339 -4.72175 
1555 1 -6.35077 6.85842 -4.44374 
2747 2 -7.02633 6.75641 -5.58201 
3330 2 -6.89129 5.99388 -5.72386 
1148 1 -4.9429 7.01211 -4.939 
2573 1 -5.87592 6.07021 -5.76956 
297 1 -6.09501 5.93915 -4.52027 
803 1 -5.12878 6.06932 -5.24663 
1396 1 -3.73109 5.80471 -5.44945 
964 1 -3.87711 7.15149 -5.24332 
1235 1 -4.37756 6.30964 -5.05306 
1140 1 -2.54047 6.26339 -5.87712 
2018 1 -2.03348 6.94536 -5.47856 
658 1 -1.95669 -6.55175 -5.68727 
3018 2 -0.934516 6.98148 -5.28002 
1107 1 0.196297 -6.88202 -5.51219 
1709 1 0.466298 6.74523 -5.56764 
1435 1 1.24727 6.20386 -4.8995 
2899 2 1.36642 6.45111 -6.00267 
372 1 2.26594 6.15196 -5.06932 
103 1 2.92525 5.89407 -5.47061 
295 1 2.40387 6.78022 -5.90136 
1175 1 3.09851 6.98239 -5.37613 
2025 1 4.49007 5.68957 -4.82107 
1513 1 3.90204 5.87372 -5.54397 
1295 1 4.7847 5.54335 -5.75439 
2926 2 5.2311 6.81402 -4.84643 
2971 2 5.33575 6.11306 -5.19583 
538 1 6.37759 7.13622 -5.00403 
16 1 6.40349 6.43012 -5.60486 
1153 1 -6.54939 -7.18415 -3.43051 
1893 1 -6.48797 -6.7223 -4.2384 
1741 1 -6.66334 -6.72282 -2.47864 
3469 2 -5.35076 -7.10731 -3.59634 
582 1 -4.60395 -6.21967 -4.18973 
3228 2 -5.57598 -6.3605 -3.46091 
2332 1 -4.1887 -6.59229 -3.49961 
2835 2 -3.39123 -6.44502 -4.4185 
2033 1 -2.01271 -6.21859 -3.94176 
6 1 -0.715273 -5.13002 -2.87328 
1629 1 -0.371782 -6.41726 -3.9373 
3236 2 0.500373 -6.87727 -3.42381 
1945 1 -0.0746152 7.05488 -4.24263 
1249 1 1.71354 -6.88059 -3.78561 
2067 1 1.517 -6.46027 -2.99171 
27 1 1.43875 -6.02307 -4.0846 
3303 2 2.69227 -6.77346 -3.96977 
2918 2 2.75706 -6.05895 -3.7946 
1358 1 4.10331 -6.80154 -3.8089 
126 1 3.65566 -6.16296 -4.38888 
3290 2 5.1022 -6.70088 -4.63142 
144 1 4.95552 -6.72181 -3.45681 
2571 1 6.20869 -6.52732 -4.37716 
2288 1 7.18142 6.62116 -4.3677 
1312 1 7.05982 -6.88406 -4.01307 
2269 1 -6.77508 -6.2619 -3.31009 
2721 1 -6.69129 -3.87547 -4.04474 
2896 2 -5.96183 -4.81262 -3.47332 
1885 1 -5.3397 -5.71319 -4.58807 
2350 1 -4.4738 -4.66657 -5.17869 
3375 2 -5.75807 -5.60721 -3.54803 
2318 1 -4.82284 -5.25864 -3.9158 
3413 2 -3.19122 -5.76444 -4.26353 
3562 2 -3.70104 -5.38429 -4.04452 
2453 1 -2.29048 -6.11352 -4.76073 
104 1 -2.4008 -5.19558 -4.26561 
1143 1 -1.8527 -5.40778 -3.61082 
350 1 -1.26712 -6.57974 -3.73175 
180 1 -1.41393 -4.55912 -3.28766 
2102 1 -0.147429 -4.8546 -4.62586 
635 1 -0.31996 -5.56871 -4.18409 
1799 1 0.47776 -5.76816 -4.42913 
2298 1 0.382333 -4.4007 -4.0289 
1431 1 -0.680576 -4.69596 -3.73681 
632 1 0.889037 -5.10894 -4.05943 
1863 1 2.37588 -4.63625 -4.8951 
3379 2 2.56441 -5.23171 -3.63007 
3230 2 2.30183 -4.43307 -3.60001 
224 1 2.99591 -6.14904 -4.89781 
2075 1 3.79708 -5.43354 -3.23517 
3340 2 4.88667 -5.09689 -4.21947 
2695 1 5.73999 -5.20469 -3.72521 
2825 2 4.77628 -5.89099 -4.44395 
2029 1 6.49674 -5.71584 -4.02265 
2162 1 -6.96865 -5.82825 -4.00517 
1994 1 6.59769 -4.74267 -3.86165 
2106 1 -6.61649 -3.35891 -4.83586 
587 1 -7.16598 -4.2511 -3.39155 
1481 1 -5.46283 -4.74381 -4.48024 
2388 1 -4.86944 -2.54469 -4.29459 
2309 1 -5.51502 -3.83037 -4.17405 
1733 1 -4.72274 -4.34769 -4.43984 
1609 1 -4.85154 -3.37381 -4.57239 
3536 2 -3.70219 -4.57594 -4.01783 
3376 2 -3.90384 -3.89218 -3.88029 
2524 1 -2.68665 -3.9464 -4.10614 
322 1 -2.1077 -3.73019 -3.22044 
3285 2 -1.46362 -3.91251 -4.2887 
2916 2 -1.92986 -3.35994 -4.27395 
851 1 -0.543847 -3.71302 -4.80465 
1028 1 -0.385806 -3.97359 -3.97985 
1069 1 1.23135 -3.56969 -4.11395 
1843 1 0.362977 -3.25187 -3.87668 
393 1 1.56788 -4.47332 -4.45966 
480 1 2.88961 -4.11113 -4.45223 
1653 1 3.79857 -5.23845 -4.13714 
2712 1 3.19276 -3.44 -3.61295 
3244 2 4.60054 -4.39644 -4.30123 
2857 2 4.4208 -3.78399 -4.00039 
2239 1 5.2328 -3.6565 -3.17907 
463 1 5.25384 -4.51453 -3.25455 
1493 1 5.8055 -4.16861 -3.87318 
335 1 6.39761 -3.7047 -3.5436 
874 1 -6.34691 -3.1233 -4.05497 
831 1 -7.16143 -3.12627 -3.56366 
1325 1 -6.95028 -2.45621 -4.14343 
1446 1 -5.24901 -1.74437 -3.91973 
1144 1 -5.54534 -2.8482 -3.87181 
1707 1 -6.22859 -2.11623 -3.89183 
572 1 -5.28181 -2.28343 -3.17848 
2310 1 -3.79634 -2.98518 -4.56298 
3083 2 -4.17497 -3.15095 -3.63493 
3229 2 -4.18426 -2.33372 -3.39385 
1979 1 -2.97 -3.12923 -4.73501 
1470 1 -2.84568 -3.22526 -3.67508 
647 1 -3.1082 -2.41608 -3.81468 
1064 1 -0.921301 -1.47877 -3.92418 
3198 2 -2.03326 -2.66039 -4.16609 
1266 1 -1.14017 -2.44512 -3.55661 
2057 1 -1.33955 -1.65639 -3.12078 
2044 1 -0.401567 -2.9447 -3.73478 
2542 1 -0.128394 -2.00613 -3.72414 
858 1 1.52226 -2.67049 -4.34723 
984 1 0.615945 -2.39522 -3.43243 
2306 1 2.28098 -2.5081 -4.29391 
922 1 1.82853 -1.68698 -4.46823 
535 1 2.83498 -3.17296 -4.3048 
3320 2 1.83144 -2.81523 -3.23227 
876 1 2.68242 -1.40146 -3.46079 
110 1 3.4581 -2.50153 -4.65892 
3353 2 4.2874 -2.91766 -3.89436 
1496 1 5.52064 -3.26659 -3.85345 
2211 1 5.20211 -2.2324 -4.13631 
844 1 5.2637 -2.68947 -3.29623 
3116 2 6.19738 -2.29681 -4.25063 
2054 1 7.02356 -2.25547 -3.26913 
1575 1 -6.46262 -1.10988 -3.70913 
960 1 -5.26208 -0.939324 -4.11366 
1428 1 -5.69648 -1.4871 -3.32852 
1864 1 -3.76519 -2.14562 -4.51708 
2638 1 -3.19362 -1.76415 -3.37405 
3447 2 -4.20992 -1.57629 -3.33439 
2748 2 -2.09169 -1.12975 -3.80087 
400 1 -0.696756 -0.987467 -5.34764 
2395 1 -0.983351 -2.09355 -4.52965 
2766 2 -2.18257 -1.83228 -3.88586 
1971 1 -1.1152 -0.990612 -4.57543 
3354 2 0.174182 -1.71946 -4.64191 
2020 1 0.511609 -1.01488 -3.50826 
3585 2 0.052369 -0.934823 -4.51418 
2540 1 -0.472584 -0.931718 -3.4466 
1969 1 1.05251 -1.74622 -3.86516 
247 1 1.188 -1.65062 -5.09271 
169 1 2.70258 -1.84375 -4.25475 
236 1 2.90247 -0.832863 -4.22936 
2722 1 2.8495 -0.589269 -2.91835 
2013 1 1.92954 -0.731185 -4.12909 
3134 2 3.92899 -2.22256 -3.6414 
2914 2 3.92572 -1.31285 -3.6638 
1648 1 4.20959 -0.743186 -4.85826 
153 1 4.34545 -1.58431 -4.73684 
1720 1 5.71463 -1.53132 -3.29627 
1301 1 -7.02707 -1.67938 -3.99194 
2856 2 6.15591 -1.63011 -4.09812 
3186 2 -6.17106 0.0597319 -4.61214 
319 1 -6.47362 -0.306639 -3.56849 
1551 1 -5.03891 -0.0781087 -4.16077 
1835 1 -3.97911 -0.487679 -4.20529 
2674 1 -3.36039 -1.32993 -4.33503 
1343 1 -4.25128 0.45385 -4.12783 
2302 1 -3.59564 0.00339862 -3.62345 
2177 1 -3.44734 1.00302 -3.92118 
2789 2 -2.37431 -0.426037 -3.70764 
1316 1 -3.14683 0.145195 -4.50202 
3490 2 -2.36944 0.282154 -3.53227 
2605 1 -2.34498 0.860663 -4.59612 
1268 1 -1.4843 -0.0485549 -4.53623 
3500 2 -0.219324 -0.176303 -4.39511 
3555 2 -0.392597 0.579268 -4.24006 
2 1 1.27729 0.0524395 -3.81901 
2237 1 1.18255 -0.827614 -3.91242 
692 1 2.32186 -0.246727 -3.46943 
1700 1 0.835409 -0.0374461 -4.48722 
506 1 2.47831 0.979541 -3.77767 
76 1 2.67756 0.185337 -4.10093 
3483 2 3.76452 -0.47767 -3.46772 
296 1 3.96759 0.480564 -4.20111 
3305 2 3.635 0.319689 -3.17773 
455 1 4.60713 -0.124274 -4.36989 
1548 1 4.94267 -0.503142 -3.49853 
2819 2 6.02311 -0.00901361 -4.02047 
840 1 4.74851 0.577987 -3.58185 
1882 1 7.12925 0.331547 -4.11923 
2297 1 -7.14458 -0.649558 -4.13402 
2902 2 5.91192 -0.795372 -4.08916 
523 1 6.93853 -1.19183 -3.45726 
3260 2 -6.55494 1.452 -4.26071 
2278 1 -5.19576 1.01176 -3.99712 
654 1 -6.65987 0.546292 -3.45107 
493 1 -5.19668 0.750823 -4.76607 
1627 1 -5.66921 0.414734 -3.58187 
1793 1 -5.67779 1.67525 -3.61936 
2311 1 -5.41057 1.79971 -4.43909 
2423 1 -4.35785 1.23305 -3.97354 
882 1 -3.4089 1.9613 -4.26991 
3588 2 -2.53585 1.02494 -3.4004 
1910 1 -2.39156 1.90555 -4.36039 
3120 2 -2.73977 1.8065 -3.19829 
2241 1 -1.30011 0.683753 -3.70937 
14 1 -1.45599 1.5078 -3.50302 
549 1 0.451706 1.75427 -3.30319 
2950 2 -0.192409 1.22943 -3.79662 
1296 1 0.822263 0.824928 -4.17322 
2328 1 0.682827 1.66626 -4.36999 
130 1 1.84244 0.557772 -3.61152 
1012 1 1.38484 2.40001 -3.48444 
2084 1 3.60021 1.67134 -3.98263 
583 1 3.23671 0.823697 -4.36352 
254 1 2.58194 1.82422 -3.87018 
620 1 1.34271 1.50454 -3.55754 
1364 1 4.39437 1.39595 -3.62131 
234 1 4.85498 1.19738 -4.40651 
3209 2 5.83607 0.873046 -3.85065 
3369 2 5.61051 1.65808 -3.5761 
817 1 -6.71798 1.65651 -3.22664 
829 1 7.05384 1.00689 -3.55826 
3033 2 -6.72007 2.27793 -4.127 
2751 2 -6.86034 3.00051 -4.01753 
35 1 -5.95372 1.06114 -3.0303 
896 1 -5.76207 2.47558 -3.72562 
978 1 -4.24135 2.8029 -3.5667 
2529 1 -3.4799 2.93714 -4.1223 
857 1 -2.7415 2.62803 -4.28957 
1986 1 -2.68896 3.82456 -3.95473 
2436 1 -2.13834 3.10622 -4.11035 
3372 2 -2.91761 2.52635 -3.06498 
3196 2 -0.553655 1.91731 -3.92638 
154 1 -1.90121 2.49401 -3.48739 
2563 1 -1.90161 3.42442 -3.23973 
2860 2 -0.645133 2.64683 -3.7266 