ITEM: TIMESTEP
40000
ITEM: NUMBER OF ATOMS
3594
ITEM: BOX BOUNDS pp pp pp
-7.2069277355965484e+00 7.2069277355965484e+00
-7.2069277355965484e+00 7.2069277355965484e+00
-7.2069277355965484e+00 7.2069277355965484e+00
ITEM: ATOMS id type x y z 
639 1 -7.01534 -6.43924 -6.40249 
2582 1 -6.26834 -6.85896 -6.52165 
392 1 -4.92149 -6.32291 -7.07102 
3520 2 -5.10976 -6.49759 -5.98273 
1273 1 -5.78634 -6.26002 -6.92206 
2702 1 -3.95046 -6.65044 -6.64543 
3574 2 -2.9292 -6.66917 -6.77828 
2083 1 -1.66901 -6.34026 -6.42005 
2626 1 -0.890575 -5.99284 -6.02591 
623 1 -1.51637 -6.98597 -7.06886 
2368 1 0.342063 -6.40448 -6.6821 
3368 2 -0.561579 -6.60186 -7.20637 
2630 1 -0.626762 -6.90198 -6.22213 
2599 1 1.15735 -6.1954 -6.89835 
2024 1 1.21399 -7.14133 -6.93008 
2627 1 2.4821 -7.03341 -6.96362 
3442 2 3.25739 -6.07524 -6.30903 
1385 1 2.02053 -6.48392 -6.55088 
3587 2 3.28479 -6.75688 -6.22188 
1530 1 4.18769 -6.0998 -6.76853 
924 1 4.56815 -6.43544 -5.97798 
932 1 4.39497 -7.10795 -6.94402 
3208 2 5.3917 -6.19246 -6.96023 
2787 2 5.4461 -7.03257 -7.10895 
1985 1 4.97562 -7.15636 -6.0191 
916 1 5.96109 -6.77521 -6.00635 
1697 1 6.66377 -7.05696 -6.48847 
2500 1 6.63387 -5.98559 -6.50529 
2706 1 -6.2838 -5.69303 -6.56048 
3029 2 -6.97146 -4.86478 -7.09531 
2727 1 -7.19076 -5.29197 -6.11889 
1654 1 -4.89889 -5.38197 -6.85087 
2106 1 -5.60132 -5.10921 -7.01986 
2459 1 -3.76756 -5.47914 -7.07865 
2516 1 -4.32077 -5.83536 -6.47673 
239 1 -4.32889 -4.85763 -6.61469 
2981 2 -2.89449 -5.85249 -6.51353 
3061 2 -3.17 -5.06125 -6.33519 
2397 1 -2.22781 -4.8379 -6.96839 
3484 2 -1.04731 -4.87181 -6.8773 
2439 1 -1.93192 -4.73532 -6.00096 
3019 2 -0.806123 -5.87268 -7.05871 
890 1 -1.8014 -5.66846 -6.66463 
2453 1 -0.0257167 -5.76306 -6.34203 
1127 1 -0.384707 -5.02714 -5.94377 
2289 1 0.162548 -5.09488 -7.0493 
632 1 0.851406 -5.26254 -6.67841 
774 1 1.62825 -5.54098 -6.61656 
1836 1 2.38211 -5.79271 -6.92782 
2957 2 2.9254 -5.48148 -6.1877 
1587 1 2.08914 -4.84935 -6.70731 
498 1 3.22114 -4.92064 -7.01756 
362 1 4.12388 -5.15659 -6.5886 
2812 2 5.39358 -5.35112 -6.63364 
274 1 6.42149 -4.9565 -6.66572 
153 1 6.71617 -4.67873 -5.90647 
2015 1 6.21281 -5.4471 -5.93249 
335 1 -5.97057 -4.51638 -6.42478 
2535 1 -6.27095 -3.68147 -6.28764 
2022 1 -5.93724 -4.1611 -7.19991 
79 1 -6.27215 -3.31322 -7.04292 
1020 1 -5.22598 -4.26116 -6.76357 
1640 1 -5.41407 -3.56881 -6.35724 
1477 1 -4.47956 -3.99246 -6.15212 
2321 1 -4.06574 -4.1241 -6.95304 
2869 2 -3.34692 -3.51053 -5.94075 
2549 1 -2.20644 -4.01382 -6.35447 
3041 2 -3.2437 -4.24644 -6.2719 
2808 2 -1.04912 -4.05585 -6.63463 
3332 2 -1.22061 -3.28538 -6.70487 
1333 1 0.168121 -3.88082 -6.73127 
2631 1 -0.0231846 -4.52545 -6.42153 
1050 1 1.27579 -4.45938 -6.49988 
250 1 0.800483 -3.49806 -6.2738 
541 1 1.57771 -3.68849 -6.04175 
2709 1 2.11004 -3.794 -6.80202 
329 1 3.15984 -4.00194 -6.83191 
2050 1 2.72108 -3.28855 -7.11369 
2256 1 3.82857 -4.33919 -6.33946 
190 1 3.88537 -3.68586 -5.89922 
309 1 3.86127 -3.34226 -6.73203 
3212 2 5.05805 -4.55243 -6.53265 
3266 2 4.9584 -3.61478 -6.3631 
2975 2 7.12058 -4.04655 -6.92276 
1597 1 6.10536 -3.54408 -5.95803 
2211 1 6.05732 -4.06914 -6.639 
1445 1 -6.52193 -3.01334 -5.92715 
88 1 -6.19139 -2.63801 -6.62082 
2661 1 -5.53328 -2.75226 -6.22977 
477 1 -4.74379 -2.48194 -6.11264 
1835 1 -4.33766 -3.19837 -6.70905 
911 1 -3.30135 -3.0273 -6.93311 
18 1 -4.10452 -2.33145 -6.8598 
2057 1 -2.21396 -3.0655 -7.18834 
743 1 -3.19268 -2.16072 -6.65851 
1474 1 -2.17308 -2.19338 -7.04237 
2262 1 -2.51637 -3.19379 -6.50902 
913 1 -2.56131 -2.5509 -5.98743 
3234 2 -1.32065 -2.70555 -6.33101 
607 1 0.0187259 -3.11173 -6.6498 
2042 1 -0.372111 -2.07568 -6.46347 
502 1 0.62913 -2.7507 -5.91789 
3347 2 1.22443 -2.83538 -7.2058 
2804 2 0.747514 -2.35251 -6.90712 
483 1 1.87478 -3.02053 -6.48134 
1418 1 2.83809 -2.7206 -6.69181 
2628 1 2.16661 -2.16794 -6.46688 
850 1 3.58821 -2.64408 -6.2367 
1981 1 4.1143 -2.57936 -7.17152 
2767 2 5.03101 -2.80421 -6.36074 
3550 2 4.79141 -2.11327 -6.00541 
2122 1 5.83665 -2.00574 -6.36848 
3126 2 7.09909 -3.27055 -6.85166 
3087 2 7.01351 -2.53458 -6.59401 
1373 1 6.02312 -2.98532 -6.74694 
2114 1 -6.2953 -1.65363 -6.76118 
2360 1 -6.13424 -1.00719 -6.05613 
3360 2 -5.23743 -1.4344 -7.06294 
56 1 -5.11603 -1.10504 -5.94371 
41 1 -5.62135 -1.91711 -6.08165 
1928 1 -4.57667 -1.59302 -6.28854 
1112 1 -3.79838 -1.25733 -6.70169 
323 1 -2.7194 -1.06994 -6.52268 
3105 2 -1.59246 -1.94765 -6.16591 
3200 2 -1.58212 -1.13766 -6.05054 
2326 1 -1.37338 -1.24985 -7.12473 
3088 2 0.502172 -0.950744 -6.56465 
2013 1 -0.61298 -1.2599 -6.29332 
1976 1 -0.642868 -0.702337 -7.12666 
3151 2 0.686386 -1.60433 -6.90658 
919 1 1.65236 -1.53395 -6.19422 
2708 1 1.84245 -0.703776 -6.59516 
1859 1 2.59002 -1.4112 -6.38957 
303 1 3.45629 -1.79357 -6.79044 
388 1 3.48832 -0.928705 -6.33866 
1648 1 4.36627 -1.67073 -6.94771 
42 1 5.16172 -1.72375 -7.11733 
2510 1 5.58147 -1.19667 -6.08348 
2072 1 4.97091 -0.923974 -6.73712 
2180 1 5.77821 -1.0979 -7.05121 
2840 2 6.88524 -1.76314 -6.6827 
2797 2 6.73223 -0.978958 -6.36831 
90 1 -6.74858 -0.339493 -6.48604 
519 1 -6.91486 0.625117 -6.21811 
1698 1 -7.08 -0.0895859 -7.14083 
3097 2 -5.5954 -0.637688 -7.04124 
3127 2 -5.60501 0.112473 -6.79129 
2699 1 -4.615 -0.537232 -6.35971 
1001 1 -3.48894 -0.41658 -6.34931 
415 1 -4.40362 0.0343832 -6.93436 
433 1 -3.94593 0.518018 -6.21452 
964 1 -2.95483 0.100362 -6.2218 
28 1 -2.3211 -0.230237 -6.76187 
1745 1 -0.700938 -0.144482 -6.47593 
2081 1 -1.5109 -0.417296 -6.93953 
1661 1 -1.31517 0.495934 -6.59252 
3311 2 0.328286 -0.229585 -6.56967 
2928 2 0.178872 0.469094 -6.4314 
1695 1 1.34165 -0.0325795 -6.79757 
2730 1 1.31495 -0.00452173 -6.01684 
2150 1 2.24986 0.121609 -5.99968 
3195 2 2.61007 0.0810807 -7.04082 
453 1 3.99652 -0.613845 -6.93073 
1085 1 3.49352 -0.118826 -6.19296 
970 1 3.79312 0.564556 -6.6877 
1362 1 4.55983 -0.120884 -6.51762 
556 1 5.52195 -0.365763 -5.9588 
2380 1 5.59206 -0.141722 -6.82969 
2276 1 5.09557 0.648839 -6.27952 
3135 2 6.60163 -0.11391 -6.18614 
3038 2 6.42827 0.607193 -6.07183 
305 1 6.72972 0.508023 -7.20625 
3140 2 -5.95931 1.51064 -6.57791 
1185 1 -7.1023 1.20607 -6.86381 
3007 2 -5.75093 0.848487 -6.90501 
408 1 -4.84062 0.695788 -6.19736 
1335 1 -4.62691 1.32497 -6.75822 
2560 1 -4.96599 1.64083 -6.03575 
1336 1 -4.08623 1.34209 -6.00624 
3148 2 -3.68565 1.45061 -7.07584 
1446 1 -3.12554 1.67967 -6.09691 
83 1 -3.21459 0.903976 -6.26804 
343 1 -2.28527 0.659555 -6.84143 
1772 1 -2.55306 1.45651 -6.6919 
1370 1 -0.714826 1.89247 -7.08521 
1265 1 -1.15506 1.41721 -6.11757 
287 1 -1.75274 1.39893 -6.78973 
3078 2 0.203999 1.22074 -6.29487 
1525 1 -0.63448 0.970678 -7.09808 
941 1 1.27942 0.901407 -6.61958 
1817 1 1.20283 1.71189 -6.69472 
2960 2 2.36779 0.864642 -7.02303 
3459 2 2.3021 1.75309 -6.93595 
1876 1 3.06112 0.677579 -6.00169 
312 1 3.09464 1.93603 -6.25354 
1176 1 2.65147 1.31512 -5.90236 
1034 1 3.45262 1.29141 -6.84517 
366 1 4.50628 1.33578 -6.29844 
2068 1 3.84245 1.85546 -6.50376 
1414 1 5.75526 0.74301 -7.02911 
404 1 5.64288 1.53221 -6.90175 
2151 1 6.56156 1.57159 -7.04224 
3465 2 -6.09686 2.27705 -6.53369 
2736 2 -6.45566 2.91457 -6.23227 
625 1 -7.16361 2.61093 -7.0633 
1232 1 -4.86938 2.19975 -6.84443 
822 1 -5.17649 2.82536 -6.34888 
1353 1 -4.28451 2.33048 -6.11076 
2783 2 -3.97157 2.84677 -7.05713 
3093 2 -3.87151 2.1781 -7.16542 
2275 1 -2.31176 2.31639 -6.68483 
2576 1 -3.06824 2.57651 -6.36726 
883 1 -1.54173 2.28383 -6.61832 
920 1 -1.50267 3.16609 -6.0841 
757 1 -1.00726 2.77092 -6.96749 
3444 2 -0.117321 1.99923 -6.22246 
2813 2 -0.22314 2.90928 -6.14331 
2463 1 1.06037 2.6573 -6.28233 
3417 2 1.92579 3.14052 -6.62607 
2080 1 0.819681 2.45791 -7.16706 
3393 2 2.00227 2.39551 -6.82054 
1113 1 2.88431 3.26711 -6.14153 
1218 1 3.04797 2.49072 -7.13797 
1068 1 3.50473 2.73149 -6.12916 
805 1 4.46456 2.4837 -6.07503 
2765 2 4.019 3.01258 -6.96707 
795 1 5.08876 2.03888 -6.48787 
284 1 5.37343 2.96327 -6.70582 
115 1 7.13907 2.0644 -6.29188 
2386 1 6.30491 2.28738 -6.88666 
2597 1 6.21357 3.24211 -6.72098 
2685 1 6.84172 2.81922 -6.21171 
3238 2 -6.63152 3.72587 -6.15554 
2519 1 -5.94725 3.44528 -7.18304 
3045 2 -6.63027 4.51645 -6.04397 
536 1 -5.10745 3.33194 -7.15336 
829 1 -5.87904 4.40421 -6.77363 
443 1 -5.38091 3.71627 -6.35005 
3408 2 -4.15332 3.47209 -6.71921 
3411 2 -4.40004 4.14869 -6.54628 
912 1 -3.40795 4.2093 -5.94153 
223 1 -3.29289 4.38055 -6.96172 
1517 1 -2.23008 3.30719 -6.62136 
353 1 -2.29376 4.07288 -6.14267 
1344 1 -3.022 3.43149 -6.41518 
175 1 -1.29663 3.91269 -6.51997 
1933 1 -0.828567 3.60835 -7.12792 
2285 1 0.466106 3.41655 -6.7989 
1773 1 -0.18412 4.03018 -6.80742 
324 1 0.585326 4.44997 -6.12261 
3478 2 1.8085 3.90735 -6.40637 
430 1 0.815532 4.54874 -6.97509 
703 1 2.96856 4.12751 -6.70602 
591 1 2.92627 3.3133 -7.04947 
3551 2 4.12078 3.75689 -6.97094 
16 1 3.70773 4.54477 -5.94655 
2530 1 5.06025 3.6853 -6.37878 
760 1 5.7629 4.11055 -6.45637 
2568 1 5.14647 4.54153 -7.14368 
213 1 6.68343 3.98065 -6.44303 
297 1 -6.04236 5.70048 -6.92398 
3147 2 -6.75648 5.36902 -5.97342 
317 1 -6.33659 5.04933 -7.19853 
2045 1 -5.28553 4.69422 -6.32366 
3463 2 -4.60034 5.69979 -6.40836 
1872 1 -5.60947 5.44033 -6.20682 
3471 2 -4.3204 4.92726 -6.42494 
2446 1 -3.36683 5.73946 -6.51534 
3454 2 -2.22402 5.49012 -6.99154 
341 1 -2.81239 4.85914 -6.2312 
1881 1 -1.73911 4.91544 -6.16468 
2524 1 -1.08659 4.85146 -6.57624 
225 1 -1.18421 5.6834 -6.57808 
1346 1 -1.6946 5.79047 -5.91675 
1767 1 -0.0783445 4.8969 -6.5384 
1639 1 -0.297038 5.84269 -6.48049 
3466 2 1.77627 4.70014 -6.39372 
1889 1 0.704667 5.42004 -6.65704 
3138 2 1.63931 5.44047 -6.10297 
839 1 3.03078 4.98092 -6.5939 
96 1 2.92256 5.87273 -5.9768 
2492 1 2.40025 5.38328 -7.16685 
3223 2 4.11313 4.65182 -6.8208 
3215 2 4.06465 5.53584 -6.85409 
2711 1 4.96428 4.63838 -6.19876 
2678 1 4.71522 5.51657 -5.98972 
2142 1 5.72326 5.16849 -6.34639 
2594 1 7.169 4.65127 -6.98033 
1410 1 6.98884 5.56341 -6.82247 
1667 1 6.38439 4.78624 -6.22458 
1965 1 6.30108 5.70776 -6.11064 
1616 1 -7.00817 7.09331 -6.83957 
558 1 -6.54313 6.38079 -6.65391 
3477 2 -4.93397 7.16704 -6.19307 
491 1 -5.76269 6.82079 -6.75599 
3150 2 -4.64894 6.40879 -6.24093 
2033 1 -5.69402 6.34823 -5.97748 
1490 1 -3.74059 6.93856 -6.79392 
1235 1 -3.59472 6.63635 -6.00491 
2944 2 -2.53959 7.06227 -6.61514 
3268 2 -2.37369 6.31759 -6.88849 
1747 1 -1.5403 7.20248 -6.12966 
1356 1 -1.27098 6.51865 -6.4645 
245 1 -0.418396 6.70566 -6.52933 
1521 1 0.364601 7.08524 -6.59235 
586 1 0.433226 6.05555 -5.95489 
2675 1 0.773991 6.44872 -6.85446 
215 1 1.7706 6.5614 -6.96274 
2899 2 1.36974 7.08084 -5.91414 
2831 2 1.48372 6.3007 -5.92737 
2048 1 2.44554 6.96584 -6.24071 
255 1 2.5325 6.17649 -6.79156 
3569 2 3.53174 6.98442 -6.33232 
2790 2 3.67188 6.21296 -6.75078 
1311 1 4.68727 6.60144 -6.39861 
302 1 5.32966 5.99687 -6.38188 
522 1 6.78167 6.54389 -6.53007 
13 1 6.01408 6.64806 -5.9618 
1345 1 -6.26555 -6.21203 -5.70077 
695 1 -6.22396 -5.98022 -4.84448 
698 1 -6.34591 -7.03439 -4.7601 
2462 1 -5.5333 -6.53818 -4.91526 
833 1 -3.86411 -6.91981 -5.82876 
1149 1 -4.4087 -6.52937 -5.07024 
2002 1 -3.87691 -6.10398 -5.73328 
1984 1 -2.15581 -6.07065 -5.67456 
1567 1 -2.2083 -7.0425 -5.51209 
1643 1 -2.99154 -6.47072 -5.43231 
3322 2 -1.3845 -6.30028 -4.95715 
3594 2 -1.00278 -7.0453 -5.13102 
1689 1 -0.215836 -6.46153 -5.56111 
1107 1 0.361497 -6.83164 -4.78568 
486 1 -0.168385 -6.13582 -4.66382 
2978 2 0.969732 -6.63641 -5.82183 
3128 2 0.809091 -5.94435 -5.73361 
2096 1 1.72614 -6.45647 -4.99929 
2537 1 1.93754 -5.98868 -5.76025 
1211 1 2.50897 -6.63798 -5.51916 
811 1 2.6132 -5.94265 -5.09486 
1442 1 3.32193 -6.28295 -4.99024 
2469 1 3.96625 -6.23511 -5.54052 
2136 1 3.85466 -6.86327 -5.01822 
893 1 5.30655 -6.07776 -5.75827 
589 1 5.76149 -6.30566 -5.12158 
3290 2 5.10866 -7.16107 -4.91556 
3487 2 7.08112 -6.79046 -5.31414 
610 1 6.09149 -7.03055 -5.26556 
2828 2 6.87929 -5.96653 -5.23462 
1263 1 -6.52931 -5.3114 -5.63974 
316 1 -6.4145 -4.8816 -4.97703 
2176 1 -4.90064 -5.88572 -4.70039 
3416 2 -5.30897 -5.60366 -5.82246 
3325 2 -5.31054 -4.8565 -5.71104 
523 1 -4.74029 -4.9655 -4.77528 
1994 1 -5.64579 -5.43549 -4.615 
959 1 -4.20561 -5.64505 -5.08704 
977 1 -4.14343 -4.93735 -5.72691 
1144 1 -3.38934 -4.83836 -5.06828 
1506 1 -2.98811 -5.65311 -5.20453 
897 1 -2.30973 -5.20156 -5.36212 
786 1 -1.17192 -5.24127 -5.88709 
3480 2 -1.44773 -5.46217 -4.7425 
3285 2 -1.59232 -4.66982 -4.63321 
1931 1 -0.410592 -5.67858 -5.26605 
2826 2 0.62228 -5.3307 -5.33108 
3068 2 0.608888 -4.59229 -5.52967 
2058 1 -0.448111 -4.88386 -4.67142 
19 1 1.49503 -4.82448 -4.88145 
15 1 1.4728 -5.75509 -4.65997 
1538 1 1.81806 -5.11247 -5.78015 
1837 1 2.15842 -5.28089 -5.04069 
2933 2 2.88509 -4.80433 -5.87748 
248 1 4.19466 -5.46712 -5.82541 
1945 1 3.30232 -4.89605 -4.66375 
1425 1 3.55955 -5.59189 -5.18411 
1416 1 3.81087 -4.67958 -5.43871 
779 1 4.95083 -5.57496 -5.42497 
2539 1 4.68786 -4.63862 -5.5865 
452 1 5.70424 -5.18558 -5.28154 
3010 2 6.80695 -5.1176 -4.84992 
572 1 -6.65558 -4.32421 -5.69615 
1444 1 -6.71188 -3.94357 -4.90264 
2912 2 -5.41772 -4.27742 -5.39175 
2737 2 -5.71446 -3.64501 -5.29191 
1140 1 -4.62632 -3.70142 -5.05349 
1979 1 -4.00299 -4.25169 -5.19126 
1671 1 -3.07248 -3.79595 -4.78531 
386 1 -2.62751 -4.27097 -5.23502 
1629 1 -2.60363 -3.36521 -5.21526 
484 1 -2.03259 -3.47719 -5.80822 
842 1 -1.44905 -4.19577 -5.54493 
1087 1 -1.15573 -3.31137 -5.34154 
2105 1 -0.585624 -3.76797 -4.76396 
2263 1 -0.607818 -4.4417 -5.26045 
2768 2 0.51023 -3.92521 -5.24545 
922 1 -0.413098 -3.75104 -5.83981 
2520 1 1.57075 -3.39956 -5.29714 
1313 1 1.76826 -4.32268 -5.62444 
840 1 1.80631 -3.88433 -4.7804 
1234 1 2.52424 -4.45076 -4.9139 
3249 2 2.687 -4.00299 -5.7734 
26 1 4.53024 -3.66926 -5.41816 
2558 1 3.50054 -3.87988 -4.98298 
1322 1 5.83559 -4.27727 -5.72552 
346 1 5.35743 -3.84918 -5.14771 
451 1 5.47109 -4.50269 -4.63249 
2670 1 6.98326 -3.75745 -5.8587 
3173 2 6.37474 -3.65685 -4.76224 
3080 2 6.47448 -4.37756 -4.89944 
2612 1 -6.89499 -3.23161 -5.27886 
2721 1 -6.70697 -2.23029 -5.61566 
2126 1 -7.12678 -2.56202 -4.66164 
2320 1 -4.73526 -3.21974 -5.74784 
2890 2 -5.83355 -2.85511 -5.10061 
2480 1 -4.58998 -2.82374 -4.99804 
2974 2 -5.81412 -2.09481 -5.01048 
1285 1 -3.80809 -3.19589 -4.72366 
2844 2 -3.69736 -2.89505 -5.74679 
3543 2 -3.63272 -2.09444 -5.64303 
2302 1 -3.7882 -2.33413 -4.6217 
594 1 -2.97269 -2.62601 -4.88841 
858 1 -2.06951 -2.58834 -5.3054 
2139 1 -0.943717 -2.57358 -5.06429 
3227 2 0.454356 -3.18404 -4.9688 
527 1 -0.359055 -2.90767 -5.84271 
3430 2 0.318898 -2.47279 -4.75381 
400 1 0.0911446 -2.03257 -5.78453 
628 1 1.47163 -2.51754 -5.89018 
1644 1 1.38928 -2.45167 -5.05345 
3014 2 2.68233 -3.25039 -5.83662 
2830 2 2.48585 -2.82507 -5.31211 
3356 2 2.4853 -2.10588 -5.4177 
1415 1 4.58426 -2.77185 -5.10858 
1215 1 3.35232 -3.10772 -4.73059 
85 1 3.83804 -2.94579 -5.42447 
40 1 3.73118 -2.14007 -5.08729 
2306 1 5.41377 -2.99177 -5.29106 
873 1 5.41141 -2.00833 -5.2056 
304 1 6.02203 -2.56775 -5.76144 
2101 1 6.67587 -2.83654 -5.63321 
3116 2 6.12925 -2.03991 -4.60361 
148 1 -6.85416 -1.45714 -5.89318 
2993 2 -5.99968 -1.32495 -4.88928 
1483 1 -7.15579 -1.07493 -5.13438 
2132 1 -6.97553 -1.83362 -4.76055 
874 1 -4.80007 -1.88206 -5.33606 
1781 1 -5.00773 -0.943774 -5.02128 
3256 2 -3.83457 -1.36724 -5.58041 
965 1 -2.64128 -1.50908 -5.86281 
2465 1 -2.53247 -1.93837 -5.13628 
2108 1 -2.68418 -0.826396 -4.8253 
460 1 -1.67696 -1.90855 -5.07923 
154 1 -0.714487 -1.74178 -5.37437 
1489 1 -0.931382 -1.0061 -4.93214 
2589 1 -1.89837 -1.04934 -4.87373 
3354 2 0.116808 -1.70939 -4.64711 
76 1 0.268176 -1.0794 -5.53703 
2600 1 1.21236 -0.867941 -5.7362 
1897 1 1.00393 -1.93668 -5.73929 
2298 1 1.05737 -1.38292 -5.10587 
296 1 2.55603 -0.709706 -5.89641 
3557 2 2.14472 -1.42919 -5.18295 
656 1 3.26597 -1.06794 -5.24981 
2645 1 3.31917 -1.85274 -5.88571 
2972 2 4.37356 -1.47532 -5.70635 
2995 2 4.47037 -0.673866 -5.61407 
1830 1 4.06693 -1.44099 -4.6918 
734 1 5.26516 -1.13729 -5.0249 
2074 1 6.89108 -1.9627 -5.53169 
1987 1 6.39932 -1.27458 -5.32011 
385 1 -6.2903 -0.0790483 -5.86011 
2617 1 -6.8979 -0.279063 -5.42987 
1927 1 -7.20309 0.465123 -5.17091 
3267 2 -6.17097 -0.531859 -4.75923 
2605 1 -5.49716 -0.38673 -5.76314 
1224 1 -4.76403 -0.00698008 -5.67088 
670 1 -5.51754 0.596074 -5.50918 
1953 1 -5.13841 -0.136206 -4.93925 
1910 1 -5.1324 0.581026 -4.70471 
3144 2 -3.89676 -0.64676 -5.25271 
2861 2 -4.05708 0.327124 -4.99644 
1635 1 -2.74245 -0.553935 -5.58247 
174 1 -2.29287 -0.141374 -4.67908 
596 1 -3.06087 0.239834 -5.35201 
2796 2 -1.64078 -0.457214 -5.76707 
2939 2 -1.92312 0.302433 -5.52439 
1894 1 -1.16854 0.641789 -4.89163 
2390 1 -0.428121 -0.641762 -5.73935 
2712 1 0.486376 -0.165237 -5.37433 
1971 1 -0.459011 0.117666 -5.23425 
308 1 0.721994 0.246848 -4.8037 
2187 1 1.04777 -0.560423 -4.8659 
3383 2 1.96928 0.0992765 -4.76022 
3449 2 2.04787 -0.639116 -4.88061 
130 1 3.13809 -0.104243 -5.30692 
1524 1 3.06904 0.634104 -4.91885 
3317 2 4.28213 -0.0198706 -5.45482 
1472 1 5.31415 0.080591 -4.90358 
499 1 5.77175 -0.530016 -5.23834 
1883 1 5.55188 0.399896 -5.68451 
1369 1 6.59863 -0.322362 -5.03016 
34 1 6.10026 0.577367 -4.99781 
668 1 -6.37966 0.690398 -5.58253 
1207 1 -7.17697 1.28282 -5.17494 
1607 1 -6.8707 1.41714 -5.88204 
2037 1 -5.97373 1.56996 -5.16202 
1514 1 -5.18702 1.29236 -5.4771 
3062 2 -4.19547 1.14344 -4.98745 
640 1 -2.41268 0.886257 -4.62271 
1512 1 -3.11259 1.95754 -4.96914 
2466 1 -3.17193 1.13857 -5.46289 
2846 2 -2.1151 1.04767 -5.68506 
3117 2 -2.15855 1.85609 -5.59284 
994 1 -0.71951 0.687457 -5.85088 
159 1 -1.47215 1.52929 -4.75804 
1623 1 -0.633587 1.33719 -5.3149 
603 1 0.0888882 0.756001 -5.16691 
823 1 0.615605 1.46652 -5.21951 
1368 1 1.12487 1.72622 -5.80639 
2673 1 1.03735 0.741532 -5.55624 
3241 2 1.64478 1.71769 -4.64639 
3443 2 1.84544 0.903635 -4.71405 
2575 1 1.96405 1.88341 -5.8366 
110 1 1.9681 0.84724 -5.81969 
851 1 2.74228 1.49408 -4.95919 
2848 2 4.222 0.760194 -5.37928 
3364 2 3.72518 1.30127 -5.38181 
1788 1 5.11616 1.15155 -5.04286 
194 1 5.26754 1.44989 -5.8339 
3060 2 6.33965 1.28407 -5.86296 
50 1 5.9263 1.4163 -4.7438 
817 1 -6.54883 2.1001 -5.33817 
2396 1 -6.21749 2.8281 -5.15638 
2578 1 -5.65677 2.19041 -4.64396 
1238 1 -5.43154 2.35876 -5.59814 
3456 2 -4.65396 2.76386 -4.69405 
2318 1 -3.68648 3.031 -5.60822 
2845 2 -4.36193 2.01686 -4.8605 
803 1 -3.57113 2.24433 -5.65565 
1691 1 -4.57746 3.15749 -5.77519 
2945 2 -2.22789 2.63076 -5.46617 
1255 1 -1.12102 2.27288 -5.88064 
46 1 -1.06633 2.13006 -4.95068 
330 1 -1.02536 2.85725 -5.05781 
673 1 -0.227278 2.9827 -4.82125 
1993 1 0.393957 2.52467 -4.63644 
1098 1 -0.14153 2.03145 -5.01776 
620 1 0.656375 2.38482 -5.45654 
1978 1 1.52639 2.62333 -5.59832 
23 1 2.46506 2.23528 -5.20191 
1677 1 2.74727 2.48861 -5.88715 
1066 1 2.32351 3.10088 -5.2278 
1923 1 2.61958 2.84577 -4.64968 
3388 2 3.65426 2.04633 -5.27234 
3433 2 3.60381 2.7377 -5.06825 
3298 2 5.64805 2.75425 -5.6837 
2433 1 4.73224 2.96853 -4.98202 
82 1 4.75059 2.07183 -5.35426 
1092 1 5.48715 2.06631 -4.80858 
723 1 6.7871 2.02725 -5.17619 
1331 1 7.13097 2.78609 -5.18289 
2147 1 6.27834 2.5019 -4.69837 
3414 2 6.00182 2.01939 -5.82969 
131 1 -7.0352 3.53437 -5.02515 
1229 1 -6.16844 3.68552 -5.01968 
1169 1 -6.9556 4.33879 -4.87706 
1845 1 -5.45154 4.4333 -5.5759 
35 1 -5.52215 3.30478 -5.48841 
561 1 -4.63099 3.97019 -5.51736 
3457 2 -5.09235 4.17497 -4.62569 
59 1 -3.86756 3.71046 -5.1176 
2977 2 -2.70838 3.33912 -5.19529 
2865 2 -2.71151 4.15099 -5.097 
686 1 -1.54303 3.88311 -5.69702 
1638 1 -1.51691 3.50168 -4.78036 
448 1 -0.665261 3.96313 -4.70773 
2603 1 -1.6194 4.48803 -5.12661 
3378 2 -0.38985 3.57238 -5.77719 
867 1 0.516261 3.42455 -5.11834 
3392 2 -0.574694 4.38366 -5.67904 
1998 1 0.192819 4.25831 -4.90417 
693 1 0.8819 3.52259 -5.85246 
1505 1 0.836093 4.31177 -5.32032 
2542 1 1.61151 3.44315 -5.40429 
371 1 1.68327 4.43048 -5.2789 
899 1 2.54001 4.1056 -5.58957 
2592 1 2.3426 3.88887 -4.66615 
2086 1 3.53708 3.58004 -5.89538 
2483 1 4.39233 4.10949 -5.80035 
2814 2 3.43985 4.19697 -4.98131 
377 1 4.47809 3.33937 -5.82647 
2894 2 3.60665 3.51159 -4.84677 
221 1 4.52077 3.91131 -4.99553 
2917 2 5.71875 3.3978 -5.50486 
2927 2 5.62809 4.09142 -5.30943 
2707 1 6.67565 3.55235 -5.69066 
1684 1 6.54543 4.29941 -4.694 
1200 1 6.69937 4.57157 -5.50764 
806 1 6.36511 3.38043 -4.59354 
29 1 -6.0837 4.73351 -4.97951 
1899 1 -6.81719 5.15395 -4.80336 
2473 1 -5.92199 5.64724 -4.64259 
942 1 -5.6415 5.40327 -5.37358 
587 1 -4.7811 5.08665 -5.47005 
601 1 -3.54543 5.27339 -5.83414 
507 1 -4.03314 4.78931 -5.33952 
1481 1 -4.11556 5.36692 -4.67988 
1391 1 -3.84055 5.89078 -5.40067 
3458 2 -2.84851 4.91856 -5.07181 
2988 2 -2.92292 5.57446 -4.70148 
2635 1 -2.64438 5.75465 -5.8745 
1499 1 -1.87591 5.87745 -4.88398 
3018 2 -0.698317 5.87472 -5.33827 
1775 1 -1.88537 5.23796 -5.39546 
1924 1 0.585816 5.1493 -5.63091 
3207 2 -0.559651 5.23043 -5.58587 
2208 1 0.213391 5.12862 -4.74044 
301 1 1.31298 5.2733 -5.11357 
84 1 2.09838 5.03203 -4.89503 
2379 1 2.89349 4.96551 -5.78031 
849 1 2.34243 5.72333 -5.16498 
2762 2 3.25822 4.96222 -4.81916 
1515 1 4.37436 5.69449 -4.87745 
2088 1 4.43769 4.90264 -5.32823 
2305 1 3.72219 5.5081 -5.54892 
3257 2 5.593 4.8639 -5.32351 
2971 2 5.5002 5.58676 -5.11946 
440 1 6.71499 5.30601 -4.74347 
1341 1 6.65111 5.56563 -5.49031 
3330 2 -6.6251 6.09466 -5.48986 
2747 2 -7.05488 6.88452 -5.66984 
1291 1 -5.88184 7.20097 -5.546 
1184 1 -5.47191 6.52617 -5.02875 
278 1 -4.85477 7.13654 -4.87461 
1733 1 -4.81006 6.03193 -5.14568 
2248 1 -4.1066 6.92571 -5.26325 
2428 1 -4.21375 6.27179 -4.72741 
197 1 -2.79637 6.82419 -5.5464 
3265 2 -2.94614 6.37508 -4.65825 
2835 2 -3.24761 7.12894 -4.5878 
579 1 -1.89652 6.80823 -4.68294 
1308 1 -1.89395 6.47665 -5.5266 
3455 2 -0.691845 6.61232 -5.32716 
1093 1 0.178544 6.8975 -5.67163 
949 1 1.44292 7.0845 -4.60607 
1848 1 0.657644 5.9168 -5.14436 
2429 1 0.662003 6.73795 -4.97477 
1878 1 1.67027 6.18147 -4.75984 
696 1 2.51446 6.47155 -5.56979 
1935 1 2.23146 7.12696 -4.96123 
798 1 3.04575 7.08083 -5.12178 
1882 1 4.18312 7.00858 -5.52414 
244 1 4.12095 6.55484 -4.73882 
189 1 4.39641 6.16509 -5.6101 
709 1 3.49389 6.3731 -5.3427 
2926 2 5.30082 6.40034 -5.12241 
1399 1 6.54248 6.3806 -5.27242 
2533 1 -6.70026 -6.45904 -4.41565 
58 1 -6.60132 -7.18642 -3.7105 
3228 2 -5.60771 -7.08073 -3.96817 
3375 2 -5.62207 -6.24963 -3.74394 
1406 1 -4.55953 -6.63561 -4.06768 
3413 2 -3.60913 -6.63714 -4.35681 
1551 1 -3.60782 -6.60137 -3.2882 
1435 1 -2.28037 -6.86457 -4.58479 
427 1 -2.43446 -6.09867 -4.42793 
1609 1 -2.70383 -6.99279 -3.51462 
2102 1 -2.85624 -5.95403 -3.53246 
2496 1 -1.93233 -6.49313 -3.73528 
1585 1 -1.06284 -6.12428 -3.62815 
401 1 -0.792839 -6.87064 -4.09167 
2491 1 0.602419 -5.8975 -4.50146 
3236 2 0.507135 -6.9831 -3.60073 
2969 2 0.27232 -6.13575 -3.47247 
224 1 1.16232 -6.57088 -4.45877 
2238 1 1.63644 -6.76939 -3.65013 
2918 2 2.53299 -6.51367 -4.07979 
2566 1 3.61807 -6.02519 -4.25416 
2703 1 3.95696 -6.87863 -4.08546 
2315 1 3.55174 -6.56771 -3.30147 
1871 1 5.81919 -7.09913 -4.05505 
2825 2 4.88114 -6.43981 -4.53035 
997 1 5.69789 -6.25834 -3.76955 
1584 1 4.84191 -6.69 -3.4889 
1013 1 6.98962 -6.27467 -3.85796 
98 1 6.3213 -6.52704 -4.34238 
1851 1 -6.73991 -5.54986 -4.32521 
844 1 -6.74198 -4.62388 -4.27917 
2571 1 -7.07926 -5.5816 -3.41451 
2896 2 -5.94871 -5.60106 -3.4294 
3286 2 -6.12187 -4.68892 -3.30306 
472 1 -4.75192 -5.68773 -3.77247 
1182 1 -5.78261 -4.63725 -4.42074 
2674 1 -4.94252 -4.85301 -3.73623 
3562 2 -3.6066 -5.83769 -4.17098 
3536 2 -3.70434 -5.00474 -4.07033 
127 1 -2.59287 -5.06562 -3.5479 
1086 1 -2.62591 -5.32558 -4.44671 
2038 1 -1.08996 -5.05531 -3.61646 
202 1 -1.91449 -5.61556 -3.76514 
2052 1 -0.521974 -5.53025 -4.05557 
1799 1 0.253145 -4.96625 -4.29356 
2632 1 1.38539 -4.96397 -3.33153 
1130 1 1.29098 -5.82636 -3.61492 
1160 1 1.13058 -4.91905 -4.1529 
3379 2 2.43362 -5.76747 -4.07941 
3230 2 2.35212 -4.9981 -3.8993 
1019 1 4.37423 -5.83224 -3.48167 
3244 2 4.34018 -4.84627 -4.43254 
701 1 3.40296 -4.72741 -3.49885 
1526 1 3.62111 -5.54106 -3.54025 
3340 2 4.63165 -5.62745 -4.47542 
1364 1 5.55279 -5.14005 -3.98929 
938 1 5.1787 -5.64608 -3.33419 
72 1 5.94175 -5.85401 -4.53366 
2507 1 7.06149 -4.87625 -3.6353 
655 1 6.40075 -5.5135 -3.89697 
1449 1 -6.08175 -3.54522 -4.2736 
2351 1 -6.95882 -3.35669 -4.28826 
3100 2 -6.22955 -3.91065 -3.35807 
1361 1 -5.25623 -4.12369 -4.25717 
642 1 -5.08234 -3.61885 -3.46413 
3376 2 -3.9367 -4.21922 -4.08428 
3083 2 -4.07322 -3.51459 -3.67697 
2044 1 -2.69441 -4.55374 -4.43502 
520 1 -2.69364 -4.01435 -3.79446 
1846 1 -1.90065 -4.50028 -3.59947 
3198 2 -1.77348 -3.78584 -4.48299 
180 1 -0.805496 -3.32039 -3.94326 
370 1 -1.21568 -3.72866 -3.31862 
1380 1 -0.714321 -4.38224 -3.94639 
1028 1 0.230873 -4.0098 -4.27695 
1552 1 0.946173 -3.99724 -3.56112 
1611 1 1.12595 -4.17019 -4.31581 
3015 2 2.1172 -4.14386 -3.73707 
1967 1 2.51396 -3.56319 -4.4465 
1575 1 3.26004 -4.24246 -4.07319 
2857 2 4.28146 -3.97716 -4.42046 
3353 2 4.17417 -3.28806 -4.06501 
1595 1 5.593 -3.86868 -3.97042 
1226 1 5.02812 -4.53795 -3.60459 
2659 1 6.35129 -4.36883 -3.83038 
1031 1 7.16735 -3.98248 -3.89663 
1006 1 -6.39327 -2.64118 -4.15519 
1316 1 -4.74813 -2.10444 -4.37751 
1392 1 -5.19793 -3.13088 -4.32568 
2157 1 -5.45216 -2.03553 -3.84861 
318 1 -5.58565 -2.78801 -3.62933 
3229 2 -4.32136 -2.72504 -3.62553 
3447 2 -4.26104 -2.01306 -3.34903 
228 1 -3.03942 -3.13075 -4.02185 
1023 1 -3.20212 -2.23107 -3.75121 
2916 2 -1.99727 -3.05711 -4.36361 
2766 2 -2.0972 -2.39796 -4.02959 
111 1 -1.26516 -2.71392 -3.3501 
1422 1 0.0979974 -3.12242 -3.76143 
2260 1 0.0277816 -2.15795 -3.44406 
1491 1 -0.575288 -2.56713 -4.00719 
1239 1 0.938589 -2.34439 -3.95233 
749 1 0.921588 -3.23047 -3.72445 
984 1 1.61525 -3.06379 -4.3409 
2411 1 1.51961 -1.98585 -4.33364 
566 1 2.28981 -2.65346 -4.29708 
169 1 3.13377 -3.18735 -3.88706 
1275 1 3.01939 -2.42717 -4.0378 
3134 2 4.11225 -2.45551 -3.93103 
1527 1 4.83942 -2.08523 -4.52832 
1372 1 5.24119 -3.02851 -4.45381 
721 1 5.33438 -2.86578 -3.51991 
1841 1 5.41766 -2.03657 -3.70677 
1428 1 6.09989 -3.13014 -3.49112 
2858 2 6.33286 -2.89883 -4.51666 
1548 1 6.96926 -3.04154 -3.56897 
2233 1 6.11684 -2.15348 -3.37473 
1326 1 7.04413 -2.16371 -3.60392 
1343 1 -7.15985 -1.38693 -4.21451 
2311 1 -6.28479 -1.79589 -3.80113 
2054 1 -6.4024 -0.744541 -3.66026 
1151 1 -5.57307 -1.0626 -3.83335 
1458 1 -4.84905 -1.31998 -4.2232 
262 1 -3.3 -1.41854 -3.6032 
412 1 -4.00827 -1.41713 -4.38588 
1579 1 -3.3111 -0.731494 -4.3054 
2241 1 -3.07222 -1.66711 -4.52725 
2748 2 -2.24197 -1.5934 -3.91237 
2789 2 -2.10376 -0.902849 -3.71868 
1195 1 -1.15167 -1.94359 -4.41597 
2400 1 -0.841505 -1.83252 -3.64298 
954 1 -1.20495 -1.02496 -4.16369 
3585 2 -0.0569049 -0.972064 -4.31256 
393 1 0.678967 -0.692187 -3.62421 
2237 1 0.699544 -1.54328 -3.45506 
75 1 1.1475 -1.19485 -4.17326 
482 1 1.90473 -1.04015 -3.8683 
27 1 3.20779 -1.75171 -4.58158 
1653 1 2.87798 -1.72042 -3.30162 
1237 1 2.41689 -1.75809 -4.01128 
1300 1 2.79604 -1.00322 -4.12007 
2914 2 4.00755 -1.73877 -3.58417 
3483 2 3.68406 -1.03073 -3.58412 
1340 1 4.90932 -1.20852 -4.25965 
2856 2 6.12737 -1.23118 -4.18196 
2363 1 7.00002 -1.17362 -3.28409 
3186 2 -6.36308 0.150687 -4.37124 
1568 1 -7.12978 0.653645 -3.40147 
2448 1 -5.31208 -0.312123 -3.85474 
2010 1 -5.59319 0.469337 -3.71235 
1790 1 -4.50337 -0.528488 -4.22643 
2436 1 -4.58014 0.610361 -3.87537 
1214 1 -3.8201 -0.27661 -3.75665 
2508 1 -3.13377 0.22855 -4.47082 
3490 2 -2.34159 -0.187125 -3.57802 
3588 2 -2.6263 0.475702 -3.34436 
2609 1 -1.3495 -0.191414 -4.4937 
1064 1 -1.14942 0.0859251 -3.54199 
3500 2 -0.204855 -0.258127 -4.14556 
1266 1 0.443502 0.405929 -3.2955 
3555 2 -0.295904 0.584143 -4.17088 
876 1 1.15577 -0.000645118 -3.97162 
167 1 3.02073 0.0310897 -4.27235 
665 1 2.25241 -0.307221 -3.66915 
414 1 2.25387 0.478475 -3.50229 
1911 1 3.69228 -0.612807 -4.57651 
891 1 3.85865 0.226271 -4.38551 
3305 2 3.59715 0.00444144 -3.32317 
1325 1 4.97423 -0.644492 -3.29039 
2819 2 5.84223 0.327689 -3.91191 
1328 1 4.6208 -0.473495 -4.43502 
504 1 4.65678 0.0165292 -3.79945 
2021 1 4.76979 0.649086 -4.36292 
1999 1 7.09391 -0.314622 -3.6114 
2902 2 5.91114 -0.435118 -4.01801 
802 1 7.14936 -0.540432 -4.50587 
2584 1 6.8597 0.345307 -4.23914 
3263 2 -6.33696 0.864018 -4.43643 
3260 2 -6.62691 1.63649 -4.24104 
1725 1 -5.27477 1.38886 -4.4402 
521 1 -4.58876 1.64601 -3.81112 
2383 1 -5.72978 1.70654 -3.55068 
697 1 -3.67884 0.72797 -3.90136 
1148 1 -3.68682 1.84411 -3.9288 
1198 1 -2.28937 1.68978 -4.50985 
2395 1 -3.23574 1.32129 -4.43437 
1484 1 -1.71219 1.51396 -3.88307 
1367 1 -1.72796 0.677682 -4.15369 
1543 1 -1.32417 0.981894 -3.35712 
2950 2 -0.514663 1.41995 -4.07006 
1562 1 0.54819 1.54975 -4.3496 
857 1 0.47904 1.22301 -3.35551 
1065 1 0.805873 0.800001 -4.20797 
1432 1 1.19807 1.53382 -3.52604 
295 1 1.41359 0.657934 -3.48671 
2407 1 2.90345 1.08034 -4.13593 
785 1 2.07821 1.28812 -3.66553 
613 1 3.88398 1.15825 -4.30615 
925 1 4.45123 0.923465 -3.53353 
2135 1 3.78963 1.96313 -4.02492 
3209 2 5.60294 1.00712 -3.82732 
3369 2 5.33289 1.78728 -3.64737 
1520 1 4.63424 1.74727 -4.52937 
1282 1 6.67985 1.22028 -4.46992 
1078 1 6.69719 1.38215 -3.48727 
1913 1 6.41669 1.95503 -3.90852 
3033 2 -6.9043 2.41017 -4.22312 
2653 1 -6.02659 3.10759 -4.2252 
3021 2 -7.16447 3.17957 -3.9309 
731 1 -4.96041 2.30542 -3.69997 
1880 1 -5.76088 2.51435 -3.74313 
286 1 -4.13513 2.79249 -3.80823 
2077 1 -3.47006 2.86012 -4.50549 
2490 1 -2.81093 2.33321 -4.27497 
1531 1 -2.16261 2.99349 -4.21797 
1257 1 -1.71408 2.32442 -4.38325 
1706 1 -1.84935 2.29561 -3.53474 
3196 2 -0.660094 2.13395 -3.94211 
2860 2 -0.807136 2.86762 -3.86446 
14 1 0.463663 3.08977 -3.64969 
2174 1 0.539029 2.24196 -3.82555 
1375 1 1.35826 2.48031 -3.50223 
3063 2 1.51217 2.4596 -4.56568 
3479 2 1.40067 3.1172 -4.38061 
1466 1 2.94485 2.04123 -4.30639 