ITEM: TIMESTEP
5200
ITEM: NUMBER OF ATOMS
3594
ITEM: BOX BOUNDS pp pp pp
-7.1921501027336312e+00 7.1921501027336312e+00
-7.1921501027336312e+00 7.1921501027336312e+00
-7.1921501027336312e+00 7.1921501027336312e+00
ITEM: ATOMS id type x y z 
2727 1 7.16103 -6.48381 -6.2809 
1599 1 -5.91685 -6.1239 -6.26516 
1718 1 -5.61673 -7.18429 -6.7562 
3477 2 -4.98466 7.03631 -5.64842 
196 1 -4.63209 -6.64038 -6.89689 
1071 1 -3.80755 -7.0952 -6.18578 
606 1 -3.72824 -6.05057 -7.09205 
1619 1 -3.78878 -6.90788 -6.93974 
3454 2 -2.721 -6.63179 -6.51447 
20 1 -1.24793 -6.56161 -6.17177 
2619 1 -1.72404 -6.58241 -7.04778 
2491 1 -0.313046 -7.02098 -5.81119 
2265 1 0.0581738 -6.35084 -6.22532 
2038 1 0.268877 7.01952 -6.31718 
3368 2 -0.632661 -6.16117 7.1432 
40 1 1.63964 -6.65486 -6.53367 
1905 1 0.762994 -6.83293 -6.89772 
480 1 2.32993 -6.16153 -6.85079 
1100 1 2.3115 -6.95731 -6.69278 
2957 2 3.03582 -5.82203 -6.09645 
579 1 2.15649 -6.32285 -5.95281 
3442 2 3.35149 -6.40704 -6.32461 
2623 1 4.43966 -6.74701 -6.48323 
3208 2 5.27126 -6.07552 -6.63721 
2787 2 5.39225 -6.84278 -6.85106 
1258 1 6.38699 -6.52536 -6.44232 
1610 1 6.77619 -7.16013 7.22003 
2521 1 -6.07277 -5.23696 -6.23263 
1954 1 -6.86396 -4.67108 -6.0669 
3029 2 -7.04193 -4.46124 -7.11053 
3366 2 -7.0319 -5.73748 -7.16922 
1654 1 -4.89924 -5.72167 -6.92711 
1282 1 -5.54847 -5.24809 -7.0189 
1671 1 -3.86186 -6.02205 -6.3338 
2114 1 -3.84256 -5.22559 -6.98007 
3268 2 -2.81214 -5.91543 -6.41994 
2944 2 -2.96181 -5.174 -6.25469 
448 1 -1.74831 -4.87367 -6.22076 
1143 1 -2.03161 -5.18048 -6.98015 
3019 2 -0.699254 -5.43013 -6.94659 
1702 1 -1.69204 -5.91274 -6.58573 
3484 2 -0.753224 -4.56687 -6.83463 
995 1 -1.53412 -5.52987 -5.7857 
1966 1 -0.2021 -5.18566 -5.82764 
1767 1 0.361976 -5.58247 -6.60692 
1582 1 0.395653 -4.6472 -6.4757 
2113 1 1.21427 -5.90886 -6.69702 
2298 1 1.23025 -4.8975 -6.48758 
891 1 2.03308 -4.70867 -5.57349 
2492 1 2.16455 -5.25787 -6.68262 
799 1 3.36806 -5.32145 7.19651 
2933 2 3.14041 -5.05102 -6.15739 
1373 1 4.16577 -5.60411 -6.05587 
2287 1 4.16562 -5.88096 -7.00524 
1215 1 4.08064 -5.11008 -6.82939 
2306 1 4.19294 -4.57148 -6.06646 
2812 2 5.16578 -5.31886 -6.71313 
3212 2 5.27379 -4.6426 -6.44918 
558 1 -6.82278 -5.84538 -5.97774 
284 1 6.43121 -4.70795 -6.41323 
2686 1 7.02773 -5.31948 -6.20371 
66 1 6.2768 -5.78689 -6.00835 
1291 1 6.31147 -5.48498 -6.92496 
2975 2 -7.0553 -3.74336 -6.76816 
1459 1 -5.89995 -4.28855 -6.47305 
802 1 6.77569 -3.98232 -5.88388 
1437 1 -6.26748 -3.30285 -6.08982 
477 1 -4.96185 -4.40202 -6.44725 
1918 1 -5.29948 -3.48959 -6.38072 
1280 1 -4.12886 -4.28597 -6.4111 
1001 1 -4.55182 -3.6386 -5.89683 
2139 1 -2.25741 -4.02852 -6.53252 
3574 2 -3.21147 -4.44585 -6.05043 
2238 1 -2.96829 -4.15644 -7.16071 
2808 2 -0.93508 -3.75278 -6.64295 
685 1 0.194712 -3.56728 -5.97771 
2589 1 0.148055 -3.97625 -7.04845 
886 1 0.986232 -4.01567 -6.21621 
3158 2 1.07642 -3.5991 -7.21708 
2048 1 1.95459 -4.09959 -6.51016 
502 1 2.62771 -3.82909 -6.89883 
1770 1 3.38595 -3.44986 -6.66288 
19 1 3.25754 -4.33875 -6.95821 
1471 1 4.18624 -3.98347 -7.04615 
85 1 3.95918 -3.82159 -6.16421 
3266 2 5.20011 -3.94301 -6.37903 
2068 1 6.17604 -3.69625 -6.78888 
1830 1 6.10282 -3.48058 -5.848 
452 1 -6.05876 -2.49837 -7.06547 
3126 2 -7.1425 -2.95442 -6.69059 
2641 1 -5.73288 -2.51765 -6.20253 
2042 1 -4.95045 -2.72467 -5.94995 
2699 1 -5.50313 -1.5396 -5.84821 
3360 2 -5.14773 -1.98198 -7.06949 
1445 1 -4.30491 -3.10869 -6.61916 
83 1 -4.16927 -2.21101 -6.78297 
911 1 -2.22837 -3.30391 -5.88328 
493 1 -3.18461 -1.83393 -6.66316 
2627 1 -2.62976 -3.35776 -7.01111 
1315 1 -2.62526 -2.48512 -6.78308 
1434 1 -1.7971 -3.47278 7.06294 
3332 2 -1.13319 -3.08069 -6.52971 
3234 2 -1.18246 -2.35041 -6.31071 
2368 1 0.302126 -2.47924 -5.91613 
1601 1 -0.0199943 -2.96301 -6.56857 
1425 1 1.06275 -2.91012 -5.99294 
1738 1 1.99126 -3.06152 -6.24556 
3503 2 1.11544 -2.69114 -7.05843 
1837 1 2.12102 -2.92245 -7.03789 
1976 1 2.94003 -2.70095 -6.60922 
72 1 2.30614 -2.01622 -6.32786 
2407 1 4.23354 -3.12986 -7.00397 
538 1 3.69553 -2.83424 -6.09754 
2220 1 4.04463 -2.29823 -6.93026 
2767 2 5.04912 -3.22156 -6.35007 
3550 2 4.80811 -2.58993 -5.94286 
377 1 6.1044 -2.80989 -6.69702 
3087 2 6.94347 -2.14668 -6.73563 
1493 1 6.24522 -2.6447 -5.90043 
1496 1 -6.32862 -1.79739 -6.4618 
2151 1 -6.54991 -0.858755 -6.33525 
3097 2 -5.24736 -1.19738 -6.89778 
499 1 -4.68921 -0.937357 -5.95213 
1986 1 -3.33233 -0.96724 -6.49667 
1669 1 -3.38928 -0.196169 -6.30764 
2077 1 -4.19002 -1.26732 -6.52969 
2490 1 -2.05782 -1.63873 -6.95679 
1094 1 -1.62254 -1.24938 6.92583 
1353 1 -1.04976 -0.637502 -7.00656 
3105 2 -1.07783 -1.58475 -6.30128 
1993 1 -1.01093 -1.83363 6.94252 
3200 2 -1.45251 -1.05057 -5.95688 
2591 1 -0.121186 -1.95492 -6.41683 
1057 1 -0.278485 -0.956364 -6.35781 
2480 1 -0.34435 -1.38851 -7.13196 
3347 2 1.00814 -1.9067 -6.77838 
2804 2 0.832979 -1.13892 -6.61756 
1462 1 2.10952 -1.76062 -7.04527 
925 1 2.63024 -1.07615 -6.07884 
2500 1 1.91743 -0.845891 -6.4784 
1695 1 2.98397 -1.78102 -6.18788 
1168 1 3.77522 -1.7264 -6.47632 
2670 1 5.65015 -1.3357 -6.70061 
110 1 5.8008 -2.16063 -6.31227 
366 1 4.684 -1.51077 -6.9429 
1895 1 4.75333 -0.661778 -6.55989 
2414 1 5.8733 -0.36843 -6.78876 
2840 2 6.83598 -1.41927 -6.34009 
2797 2 6.69875 -0.788681 -5.98718 
1340 1 -6.71786 0.0304091 -6.20573 
2477 1 -6.87718 -0.172481 -7.04352 
3127 2 -5.56613 -0.544372 -6.82843 
3007 2 -5.74528 0.183779 -6.72211 
1474 1 -4.59382 0.817874 -6.25192 
304 1 -4.1788 -0.211826 -6.36383 
2677 1 -3.68947 0.488013 -6.27238 
1841 1 -4.5973 0.0510324 -7.04518 
1457 1 -2.17039 -0.620329 -6.78822 
882 1 -2.9394 0.351385 -5.63224 
1933 1 -2.5716 0.0980678 -6.41106 
395 1 -1.60528 0.100909 -6.84247 
2708 1 -0.743306 0.72441 -5.93413 
3151 2 0.503513 -0.430498 -6.64218 
1238 1 -0.558612 0.386762 -6.83254 
3088 2 0.516857 0.212862 -6.27085 
1116 1 -0.768944 -0.229879 -6.18077 
769 1 1.79571 0.145918 -6.58712 
1859 1 1.98159 -1.01966 7.12136 
3195 2 2.92626 -0.453164 -6.97675 
2960 2 2.73647 0.329175 -7.13378 
1241 1 2.45801 -0.149037 -5.96117 
2617 1 3.71556 -0.139666 -6.27817 
455 1 4.07423 -0.8566 -6.95087 
2183 1 4.52029 0.140203 -6.63308 
2631 1 5.26362 -0.0878728 -6.22936 
50 1 6.0905 0.483465 -7.00982 
3135 2 6.61289 0.0645239 -6.05394 
3038 2 6.36178 0.808185 -6.09896 
3465 2 -5.96564 1.72633 -6.5506 
263 1 -7.11845 1.72834 -6.36834 
436 1 -6.85839 0.960354 -6.75108 
1684 1 -6.56995 1.15237 6.92239 
218 1 -4.64519 1.58264 -6.92636 
3140 2 -5.53894 1.02296 -6.61967 
1833 1 -4.06849 1.34889 -6.08773 
1264 1 -2.99163 1.14664 -6.36235 
580 1 -2.40864 0.735788 -7.02827 
2320 1 -2.38002 1.66163 -7.01865 
1523 1 -1.66003 0.90898 -6.85282 
1265 1 -0.885196 1.25634 -6.62531 
1932 1 -0.767091 1.50108 -5.6626 
3311 2 0.392947 0.879366 -6.38985 
2928 2 0.257818 1.64047 -6.27914 
731 1 -0.405061 1.57443 7.09761 
2558 1 1.23944 1.99037 -6.51348 
175 1 1.48865 1.1036 -6.42611 
2276 1 1.83704 1.60679 -5.86941 
3459 2 2.60896 1.06997 -7.00456 
1286 1 3.89993 0.066858 -7.20605 
178 1 3.67841 0.672116 -6.48979 
1625 1 3.67858 1.75344 -6.23392 
873 1 5.3278 0.84256 -6.46112 
2380 1 4.51063 1.01097 -6.28778 
2092 1 5.46763 1.81409 -6.36419 
1939 1 5.73199 1.40254 -7.09061 
1455 1 6.64169 1.43948 -6.94753 
2736 2 -6.07901 2.62871 -6.2466 
3238 2 -6.37214 3.37293 -6.21699 
1331 1 -6.92584 2.29706 -7.15387 
2436 1 -5.36376 3.37277 -6.69118 
1584 1 -4.92098 2.36297 -6.53596 
718 1 -5.95676 3.82285 -7.07841 
3093 2 -3.87132 2.21431 -6.89926 
2783 2 -3.99301 2.89236 -6.81191 
337 1 -2.87522 2.17314 -6.33685 
902 1 -1.92603 2.55613 -6.2263 
2452 1 -1.66319 1.8458 -6.45817 
1230 1 -1.0991 3.02194 -6.49735 
1817 1 -0.736091 2.17539 -6.75329 
586 1 0.23157 2.35926 -7.10603 
3078 2 0.312013 2.41487 -5.99221 
221 1 0.881911 2.96302 -6.82743 
1644 1 1.02144 3.24138 -5.82853 
3393 2 2.40674 1.8566 -6.96617 
3417 2 2.34481 2.68095 -6.43918 
103 1 3.17314 3.08685 -6.88023 
3478 2 1.97049 3.34888 -6.36642 
2765 2 4.33772 2.96581 7.08064 
565 1 3.94658 2.61584 -6.18809 
74 1 3.13935 2.3021 -5.93028 
1503 1 3.4507 2.23566 -6.99929 
908 1 4.51763 1.96158 -6.04168 
2116 1 6.33951 2.25011 -6.92314 
1865 1 5.32386 2.54183 -6.73528 
1027 1 6.92213 2.97179 -6.79846 
1176 1 5.84334 3.13821 -6.70038 
2305 1 6.99396 2.50408 -6.18749 
1396 1 -6.81443 4.04902 6.86007 
3045 2 -6.47003 4.21928 -6.03674 
402 1 -5.25193 4.30096 -6.1312 
1415 1 -5.72702 4.73866 -6.71907 
3408 2 -4.08226 3.63675 -6.71628 
3411 2 -4.13436 4.45515 -6.65827 
732 1 -3.37596 3.769 -5.8382 
2505 1 -1.89987 3.7467 -6.14044 
870 1 -2.78489 3.16242 -6.24095 
1224 1 -2.67257 4.04781 -6.28614 
883 1 -1.35188 4.49193 -6.3041 
1978 1 0.0403551 3.40336 -6.97096 
894 1 -0.694787 3.79709 -6.65396 
1346 1 -0.0621675 4.35448 -6.56598 
3466 2 1.69062 4.22179 -6.28699 
867 1 0.704756 3.90348 -6.47282 
1689 1 2.7465 4.09322 -6.57475 
371 1 3.31472 3.43567 -6.05266 
3551 2 3.7901 4.32378 -6.84132 
2377 1 5.55363 4.3145 -6.5854 
2025 1 5.03666 3.61588 -6.38856 
1422 1 4.47232 4.40453 -5.9008 
2009 1 6.95336 4.70088 -6.60979 
889 1 7.08453 3.88809 -6.75179 
1778 1 6.34554 3.84548 -6.49967 
365 1 -6.68085 4.83642 -6.99055 
762 1 -6.59943 5.64306 -6.83716 
1594 1 -5.4234 4.90983 -5.45674 
691 1 -5.77361 5.86723 -5.78089 
1906 1 -5.62837 5.49143 -6.50316 
2437 1 -5.49382 6.22519 -6.60988 
3463 2 -4.52704 5.70291 -6.22814 
3471 2 -4.45746 5.01613 -6.30992 
2275 1 -3.49328 5.57891 -6.78493 
1894 1 -2.14686 4.77218 -5.89288 
989 1 -3.21752 4.45401 -7.17152 
3306 2 -2.44766 5.63997 -7.01943 
285 1 -2.9818 4.83764 -6.37798 
3098 2 -2.08207 4.93709 -7.08765 
2322 1 -1.32841 5.46665 -6.28648 
1744 1 -0.736069 4.73353 -6.85673 
849 1 -1.38764 6.16307 -6.73141 
1567 1 -0.350511 5.42824 -6.53919 
2630 1 0.537315 4.82839 -5.94142 
2000 1 0.849624 4.53807 -7.02108 
3138 2 1.63741 5.00854 -6.03593 
1685 1 0.684325 5.42706 -6.67893 
2831 2 1.62666 5.77436 -6.09052 
2379 1 1.68708 5.88358 7.1756 
2256 1 2.80406 5.07605 -6.50144 
295 1 2.51569 5.75403 -6.83373 
1789 1 2.53554 4.64613 7.1454 
3223 2 3.759 5.05478 -6.80289 
2790 2 3.81773 5.70812 -6.50703 
2594 1 4.79533 5.20516 7.08577 
686 1 5.59466 5.60579 -6.18164 
865 1 5.01213 4.89916 -6.58142 
2191 1 6.93432 5.42811 -6.62661 
1927 1 6.19757 4.85673 -6.16191 
1318 1 -6.37159 -6.8793 -6.33102 
1879 1 7.17275 6.18784 -7.0033 
2662 1 -6.34899 6.43249 -6.59206 
1060 1 -5.98186 6.78759 -5.78338 
1004 1 -3.50906 6.55419 -6.90375 
3150 2 -4.63994 6.59962 -6.11513 
360 1 -4.33865 6.80172 -6.96993 
2832 2 -2.48193 6.99477 -6.76002 
2839 2 -2.35599 6.21586 -6.64265 
1030 1 -2.8163 5.46828 -5.85338 
512 1 -0.918399 6.85537 -6.26686 
1623 1 -1.624 6.46812 -5.76377 
2018 1 -1.93257 -7.10077 -5.79438 
641 1 0.465591 6.22584 -6.59263 
1763 1 -0.365804 6.31812 -6.266 
2600 1 2.17297 6.59487 -6.97045 
1088 1 1.3002 6.89102 -6.93054 
2899 2 1.48714 6.56203 -5.87941 
2462 1 2.64851 6.27327 -6.128 
3587 2 3.41686 7.18099 -6.5338 
3569 2 3.6965 6.5037 -6.47104 
795 1 5.10566 6.37093 -6.02025 
115 1 5.9373 6.65775 -5.61015 
589 1 4.72414 6.70099 -6.68013 
1295 1 4.8682 5.87951 -6.84631 
2136 1 6.44859 -7.14038 -5.93189 
1148 1 6.45262 6.36724 -6.11241 
3539 2 5.86435 6.73282 -6.92223 
1772 1 -6.97361 6.97484 -6.52727 
1490 1 -6.05091 -6.72684 -5.43883 
803 1 -6.13999 7.09578 -4.67244 
2269 1 -6.32777 -5.89134 -5.24427 
3520 2 -4.95433 -6.59436 -5.93912 
2332 1 -5.51626 -6.09766 -4.9429 
897 1 -3.75348 -6.5502 -5.62798 
2496 1 -4.37603 -6.28158 -4.75024 
1652 1 -2.0266 -6.32039 -5.59201 
1227 1 -2.7531 -6.67214 -5.29384 
977 1 -3.08645 7.09743 -5.79955 
1210 1 -0.613458 -5.8932 -5.87276 
3018 2 -1.15876 -6.81124 -4.92371 
3594 2 -1.00156 -6.00371 -4.88961 
204 1 -0.033847 -6.54119 -5.11562 
3128 2 0.996092 -6.42557 -5.47255 
1799 1 2.01052 -6.64555 -5.10289 
2826 2 0.905888 -5.65646 -5.52566 
2145 1 2.29975 7.17707 -5.91535 
2712 1 2.14365 -5.69491 -5.15683 
1358 1 3.10833 6.96823 -5.43098 
1175 1 2.86691 -6.47361 -5.13218 
440 1 4.51812 -7.13769 -5.7246 
224 1 3.78033 -6.76075 -5.24033 
281 1 4.37478 -6.28677 -5.58634 
10 1 5.38585 -7.12697 -5.64365 
3290 2 4.95695 7.11264 -4.57032 
2051 1 5.20782 -6.17251 -5.5876 
1000 1 5.77063 -6.43137 -4.80094 
2828 2 7.16913 -6.5122 -5.20083 
2479 1 6.17269 7.07269 -4.93481 
1526 1 5.91082 -6.49418 -5.65504 
1530 1 6.43737 -6.88399 -4.34865 
1013 1 -6.34627 -4.9902 -5.24428 
1994 1 -6.33183 -5.30707 -4.41032 
3416 2 -4.98562 -5.70825 -5.79322 
2912 2 -5.27952 -4.95656 -5.48746 
2388 1 -4.33143 -5.15893 -4.85897 
1784 1 -4.30746 -5.22574 -6.34117 
582 1 -3.92194 -5.52359 -5.47302 
2248 1 -3.48274 -4.77181 -5.12779 
2612 1 -3.16577 -5.74625 -5.28007 
1235 1 -2.34526 -5.66918 -5.19707 
1691 1 -2.24929 -5.70717 -4.33234 
842 1 -1.04103 -4.7716 -5.60518 
3322 2 -1.27403 -5.2053 -4.71385 
687 1 -0.0130505 -5.70604 -4.9753 
139 1 -0.226327 -4.74605 -5.10813 
3068 2 1.01622 -4.90846 -5.40452 
2656 1 1.65379 -5.89388 -4.56407 
2178 1 1.83426 -5.5527 -6.06998 
1313 1 2.58276 -5.04557 -4.86126 
1160 1 3.17984 -5.68161 -4.88801 
1653 1 3.90504 -5.71391 -5.25984 
1075 1 4.04791 -4.82858 -5.35454 
628 1 4.8812 -5.3355 -5.64823 
1616 1 6.0703 -4.48157 -5.68564 
274 1 5.70948 -5.20956 -5.72882 
1320 1 5.6151 -4.59111 -4.77832 
3010 2 6.70263 -5.89325 -5.06009 
3080 2 7.00248 -5.16869 -5.0025 
1788 1 -6.57479 -3.94122 -5.68492 
1481 1 -6.50915 -4.16576 -4.91272 
3325 2 -5.4474 -4.14841 -5.45758 
2737 2 -5.56034 -3.39497 -5.14689 
172 1 -3.6891 -3.72249 -5.09433 
715 1 -4.23267 -4.4287 -5.40733 
647 1 -4.61954 -3.85072 -4.65383 
2981 2 -3.30555 -3.4828 -5.99667 
26 1 -2.19398 -4.73107 -5.40861 
1433 1 -2.28319 -3.91949 -5.21298 
1840 1 -1.68805 -4.01098 -5.76145 
1643 1 -1.35972 -3.17882 -5.42821 
851 1 -0.803678 -4.03168 -5.2895 
15 1 -0.170006 -4.31083 -5.96975 
3227 2 0.600021 -3.26161 -4.91418 
1073 1 1.63129 -3.7318 -5.6566 
2768 2 0.680573 -4.22793 -5.0241 
250 1 1.78308 -3.97029 -4.74783 
1953 1 1.5736 -2.99713 -5.07535 
3249 2 3.09317 -4.41301 -5.83133 
3014 2 2.8159 -3.45951 -5.59383 
126 1 4.36854 -3.82851 -5.3981 
879 1 3.36723 -4.81134 -4.86465 
541 1 3.57244 -3.85294 -4.7976 
2348 1 5.08107 -4.42703 -5.30572 
2530 1 5.54593 -3.79536 -5.22959 
659 1 7.00297 -2.96916 -5.67866 
3173 2 6.68356 -4.41155 -4.9319 
2858 2 6.54993 -3.59727 -4.83028 
601 1 -6.55276 -2.34099 -5.88794 
1673 1 -6.74009 -3.22337 -5.19877 
2023 1 -6.94718 -2.37125 -5.0752 
1514 1 -4.6706 -1.94535 -5.98075 
2890 2 -5.6383 -2.57251 -5.14793 
2974 2 -5.86148 -1.95374 -4.89254 
1465 1 -4.40196 -3.18804 -5.19503 
1087 1 -4.4462 -2.20913 -5.04502 
2706 1 -3.67004 -2.84739 -4.66849 
3061 2 -3.37721 -2.61389 -5.87669 
1611 1 -2.83766 -3.16177 -4.80846 
2674 1 -3.01592 -2.10016 -4.68734 
2549 1 -2.22922 -2.58203 -5.19153 
954 1 -0.577428 -3.13937 -4.64658 
1864 1 -1.29358 -2.35046 -5.18558 
1984 1 -0.500596 -3.22961 -5.60392 
3430 2 0.476887 -2.57395 -4.53622 
1618 1 1.65083 -2.16685 -5.80034 
84 1 1.45611 -2.03366 -4.92176 
2830 2 2.62364 -2.67012 -5.2757 
3356 2 2.58785 -1.89862 -5.08511 
1472 1 4.46467 -2.75277 -4.92396 
388 1 3.76095 -3.04854 -5.27854 
840 1 3.491 -2.59715 -4.5742 
2084 1 3.71564 -2.12065 -5.67915 
1466 1 5.40051 -1.9202 -4.85931 
148 1 5.21266 -3.17138 -4.76591 
190 1 5.7324 -2.67073 -5.29642 
639 1 6.79057 -2.09957 -5.43863 
1385 1 5.92912 -1.68518 -5.46358 
2130 1 -6.33067 -1.34374 -5.73525 
1872 1 -6.97568 -1.3884 -5.09054 
806 1 -6.5822 -0.587891 -5.4412 
3267 2 -5.95637 -0.48687 -4.4304 
1301 1 -5.62634 -0.552113 -5.62078 
2578 1 -4.84693 -1.44352 -5.03298 
3041 2 -3.66126 -1.88991 -5.57479 
2869 2 -3.61861 -1.06114 -5.41448 
1815 1 -2.28631 -2.09174 -5.89693 
1581 1 -2.66693 -1.48759 -5.20494 
2030 1 -2.58208 -1.25353 -6.30474 
2601 1 -1.87304 -1.53879 -5.02002 
1890 1 -1.40241 -0.410538 -4.35429 
1484 1 -0.817577 -1.56557 -5.22969 
484 1 -0.296631 -2.21183 -5.43381 
1106 1 -0.110133 -1.18524 -5.53705 
2105 1 1.71721 -1.30287 -5.79569 
644 1 0.723736 -1.77275 -5.46531 
1940 1 0.779898 -0.863518 -5.34548 
971 1 1.25498 -1.2303 -4.63979 
3557 2 2.44838 -1.08719 -4.87947 
1698 1 3.71273 -0.915701 -6.07034 
2972 2 4.79424 -1.74114 -5.88903 
2995 2 4.64006 -1.04397 -5.46476 
1548 1 4.04022 -1.94844 -4.84572 
2150 1 3.47899 -1.26626 -5.29866 
153 1 5.63868 -0.831332 -5.98205 
1364 1 4.36611 -1.27793 -4.39917 
2223 1 5.39767 -1.20173 -4.56322 
1145 1 6.54242 -1.24071 -4.96964 
941 1 5.79131 -0.752234 -5.10223 
1138 1 -6.13472 0.0853047 -5.49113 
698 1 -6.97428 0.338104 -5.40352 
670 1 -4.92481 -0.572496 -5.00627 
857 1 -4.74023 0.00873027 -5.8275 
720 1 -5.23855 0.230972 -5.33125 
2844 2 -3.92719 -0.242393 -5.21004 
3543 2 -4.05155 0.515003 -5.16454 
1790 1 -2.68702 -0.586067 -5.62522 
1268 1 -2.92221 0.124714 -4.80839 
1971 1 -2.1903 -0.643598 -4.84321 
855 1 -1.14501 0.307212 -4.77279 
1257 1 -2.04025 0.261031 -4.72929 
2796 2 -1.63734 -0.212387 -5.70057 
2381 1 -0.0714188 -0.319362 -5.61169 
1380 1 -0.881133 -0.595715 -5.06878 
2605 1 1.40697 -0.252563 -5.68296 
75 1 0.775918 0.169885 -5.20554 
2231 1 1.38693 0.710399 -5.6583 
2535 1 3.14806 0.393098 -5.85471 
859 1 3.10634 0.567273 -4.98632 
3449 2 2.13394 -0.305456 -4.84107 
3383 2 2.06212 0.541797 -4.87849 
2575 1 3.23223 -0.296274 -5.38364 
3317 2 4.5035 -0.235992 -5.43666 
2848 2 4.31508 0.499255 -5.4348 
34 1 5.579 0.0915816 -5.37332 
1575 1 6.2852 -0.0653327 -4.92845 
960 1 7.15243 -0.390836 -4.8422 
2423 1 -6.78722 1.05354 -5.91078 
1335 1 -6.06099 0.86482 -5.43712 
1369 1 -6.26408 1.6761 -5.3291 
2560 1 -5.51596 1.94663 -5.21712 
877 1 -5.30827 1.09739 -5.49099 
789 1 -4.86893 1.78782 -5.83058 
1551 1 -5.1928 0.550086 -4.64349 
24 1 -3.70824 1.91398 -5.76764 
3256 2 -4.3511 1.18222 -4.93665 
3144 2 -4.40597 1.98773 -4.77229 
668 1 -3.2919 1.13001 -5.59275 
2846 2 -2.02882 1.24454 -5.69209 
28 1 -1.15451 1.1514 -5.0078 
2939 2 -1.78898 0.52242 -5.83083 
1880 1 -1.28892 1.89094 -4.82597 
2037 1 -0.373409 0.477196 -5.31009 
42 1 0.276351 0.984805 -5.23027 
46 1 -0.135555 1.79723 -5.17179 
2647 1 0.506587 1.98075 -4.69857 
549 1 1.05157 1.50029 -5.39025 
3443 2 1.86405 1.34288 -4.60083 
613 1 2.68333 1.63002 -5.41756 
2336 1 2.24974 0.699991 -5.92315 
850 1 3.02204 1.20561 -5.98811 
3364 2 3.9223 1.12169 -5.2964 
2352 1 5.37927 0.908466 -5.51099 
234 1 5.15504 1.58655 -4.65488 
140 1 5.02569 1.68635 -5.45743 
1200 1 -7.06078 1.39465 -5.11304 
1402 1 5.82374 0.692971 -4.71799 
2711 1 6.46322 1.39301 -4.50546 
3060 2 6.36045 1.35789 -5.59881 
577 1 -7.03796 2.05255 -5.55054 
13 1 -6.33197 2.41667 -5.12488 
1760 1 -6.40204 3.41938 -4.99616 
1169 1 7.23517 2.77713 -5.1577 
92 1 -5.3134 2.78214 -5.42565 
896 1 -5.81501 2.90495 -4.6975 
488 1 -4.26184 2.58637 -5.72113 
1454 1 -3.44444 2.73495 -5.84674 
408 1 -3.54756 2.93279 -4.79794 
2861 2 -4.55588 2.74222 -4.50072 
246 1 -3.26134 1.94415 -4.97394 
3117 2 -2.2914 2.10484 -5.37013 
2945 2 -2.42139 3.04284 -5.15013 
741 1 -1.16304 2.31159 -5.85251 
474 1 -1.33391 3.32595 -5.63762 
561 1 -0.890788 2.52927 -5.04709 
1132 1 -0.09301 2.60546 -4.77626 
3444 2 -0.0577924 3.02132 -5.8575 
1375 1 0.906707 2.65842 -5.16547 
171 1 1.35346 2.27978 -5.73669 
1614 1 1.70539 3.1635 -5.32312 
785 1 2.96834 2.9057 -5.52197 
2707 1 2.7508 2.37748 -4.74348 
2271 1 2.1491 2.37118 -5.36229 
530 1 2.60884 3.26417 -4.85426 
3388 2 4.02998 1.88056 -5.10972 
3433 2 3.81456 2.58965 -4.97317 
1515 1 4.84298 2.8861 -6.14561 
779 1 4.92284 2.43877 -5.41319 
790 1 5.40206 2.99519 -4.62807 
2440 1 6.91034 2.16211 -4.71504 
3414 2 6.04786 2.1107 -5.51533 
3298 2 6.06521 2.84298 -5.72115 
2072 1 6.61594 3.14382 -4.77246 
2010 1 -6.87865 4.47651 -4.86004 
1697 1 7.10352 3.78351 -5.13645 
2376 1 -4.63093 4.34726 -5.4361 
822 1 -5.40861 3.70894 -5.42094 
2690 1 -4.87604 3.26644 -5.9604 
2495 1 -3.51182 4.56583 -5.64064 
2386 1 -4.09452 3.56999 -5.45848 
2977 2 -2.57673 3.78656 -5.08905 
1499 1 -1.55968 4.40293 -5.28195 
2208 1 -1.14106 3.74338 -4.63586 
301 1 -0.381394 3.39544 -4.699 
2813 2 -0.242128 3.7711 -5.59169 
3378 2 -0.518146 4.66404 -5.63531 
482 1 0.580416 3.33639 -4.92159 
2429 1 0.511553 4.49547 -4.95719 
1713 1 0.887217 4.03793 -5.47004 
1997 1 1.95983 3.96611 -5.17676 
268 1 2.7035 3.64148 -5.51403 
2894 2 3.77278 3.29093 -4.72131 
2703 1 4.55419 3.9354 -5.20191 
1066 1 4.16927 3.42926 -5.79833 
23 1 2.79891 4.46774 -5.83891 
81 1 4.75954 3.17505 -5.18866 
2917 2 5.72996 3.5732 -5.46302 
2927 2 5.68768 4.40634 -5.44057 
131 1 7.04769 3.41928 -5.82932 
1662 1 6.20879 4.01492 -4.43321 
3147 2 -6.49018 4.96912 -5.8251 
3330 2 -6.92373 5.64402 -5.74099 
120 1 -6.00138 5.16798 -4.89008 
833 1 -5.1726 5.65571 -5.20847 
297 1 -5.89893 4.12272 -4.91644 
2469 1 -4.40799 5.25257 -5.14173 
1991 1 -3.9281 4.66247 -4.85311 
2687 1 -3.62886 5.47632 -5.61595 
3458 2 -2.68498 4.60692 -4.96999 
1881 1 -1.91475 5.59124 -5.74532 
2865 2 -2.84272 5.3528 -4.81895 
2626 1 -1.56725 5.31563 -5.10524 
3392 2 -0.543204 5.38871 -5.51349 
563 1 0.432798 5.98521 -5.64437 
597 1 0.228054 5.29672 -4.70542 
1639 1 1.03626 5.56587 -5.13205 
245 1 1.5414 4.84834 -4.97986 
862 1 2.86932 5.48608 -5.85071 
1051 1 2.36878 5.59351 -5.02767 
1709 1 2.42799 4.62789 -5.28968 
614 1 3.6101 4.25555 -5.64894 
665 1 3.59212 5.17547 -5.54312 
1513 1 4.16432 5.73105 -5.21444 
1390 1 4.6059 5.54712 -5.91334 
3257 2 5.53252 5.05088 -5.02666 
2971 2 5.38162 5.76562 -5.08643 
1263 1 6.75149 4.36798 -5.7385 
404 1 6.39394 5.50619 -5.67685 
1631 1 6.70509 4.64606 -4.94656 
3487 2 -7.03275 7.14542 -5.25196 
2747 2 -7.12367 6.40881 -5.4977 
2466 1 -6.05406 6.11772 -4.82506 
1255 1 -5.24084 6.52694 -4.86339 
658 1 -5.16881 -6.90598 -4.74231 
358 1 -3.66982 6.88531 -5.3696 
2200 1 -4.19478 6.24679 -5.00766 
1232 1 -3.44527 6.25086 -5.94745 
1665 1 -2.14169 7.0222 -4.91991 
1725 1 -1.94067 6.196 -4.98105 
197 1 -2.49867 6.42931 -5.56121 
2988 2 -3.15177 6.13982 -4.74782 
3455 2 -1.0472 6.87482 -4.93463 
3207 2 -0.758347 6.05662 -5.15333 
2564 1 0.0536654 6.64733 -5.4035 
1486 1 0.747766 6.2654 -4.75263 
708 1 -0.0113124 7.13266 -4.74722 
2978 2 1.0493 7.22603 -5.59074 
1196 1 1.67121 5.87947 -4.74562 
133 1 0.723887 7.03673 -4.43671 
2028 1 1.7883 6.93334 -4.79154 
2714 1 2.39354 6.53474 -5.23597 
2370 1 4.19013 6.50439 -5.50673 
1019 1 3.35569 6.08123 -5.43561 
2926 2 5.18446 6.41606 -4.82888 
462 1 6.36219 6.12604 -4.96014 
964 1 -6.56514 -6.28662 -4.24371 
2106 1 -6.8909 -5.78076 -3.11305 
2166 1 -6.66771 -6.62901 -3.29702 
3545 2 -5.76279 -6.13537 -3.62463 
361 1 -4.29028 7.08595 -4.83705 
2849 2 -5.38423 -6.88967 -3.73812 
2835 2 -3.28364 -6.86871 -4.38284 
3413 2 -3.33688 -6.06546 -4.28159 
1555 1 -4.33644 -6.91937 -4.12727 
356 1 -2.13695 -6.48674 -4.64755 
1609 1 -2.90522 -6.32031 -3.20287 
1344 1 -2.2181 -6.42052 -3.83015 
2326 1 -1.24288 -6.84188 -3.85166 
534 1 -0.643235 -6.24691 -3.18768 
2569 1 -1.42862 -5.99661 -3.73417 
1945 1 0.495767 -6.37946 -4.41044 
945 1 -0.279122 -6.72718 -4.00925 
3056 2 0.47645 -6.87477 -3.3811 
27 1 1.4247 -6.656 -4.41984 
1300 1 1.57332 -6.98361 -3.6825 
893 1 1.32813 -5.90264 -3.73111 
3303 2 2.71206 -6.59866 -4.12907 
2918 2 2.44032 -5.88809 -3.91309 
1384 1 3.58453 -6.40262 -4.52364 
317 1 4.43411 -6.77615 -3.56922 
2825 2 4.81772 -6.4359 -4.51883 
746 1 5.25879 -6.71406 -3.19581 
1667 1 5.68923 -6.32375 -3.80837 
1893 1 6.60181 -6.18952 -3.91647 
1312 1 -7.12522 -5.80959 -3.89699 
1182 1 -6.90103 -4.71149 -3.98003 
3228 2 -5.94854 -4.56471 -3.27216 
3469 2 -5.97583 -5.41904 -3.272 
1733 1 -5.36045 -5.46067 -4.47057 
1730 1 -4.38108 -5.85153 -3.12689 
138 1 -5.83134 -4.62149 -4.30844 
1885 1 -4.66882 -5.85562 -3.98654 
1285 1 -4.82969 -5.07344 -3.6654 
3562 2 -3.59481 -5.44771 -4.04922 
458 1 -2.79939 -4.99015 -4.81067 
2033 1 -2.45814 -5.43207 -3.53743 
37 1 -1.85485 -4.34676 -3.47261 
1728 1 -1.54458 -5.13647 -3.57283 
1028 1 -0.682024 -5.02551 -3.84155 
1468 1 -0.0249688 -4.98912 -4.34655 
1836 1 -0.417054 -5.92772 -4.07125 
1810 1 0.683396 -5.44594 -4.28543 
1382 1 1.7492 -4.83945 -4.59012 
781 1 1.24927 -5.005 -3.76295 
3379 2 2.57172 -5.1155 -3.65411 
3230 2 2.23826 -4.31866 -3.63785 
1062 1 3.63434 -5.47396 -4.10653 
168 1 3.46422 -4.59119 -3.99931 
3244 2 4.66792 -4.69696 -4.40514 
378 1 3.63249 -5.1749 -3.27885 
329 1 5.65395 -5.41735 -5.03138 
2552 1 5.32773 -5.37848 -3.70718 
3340 2 4.61306 -5.57953 -4.51366 
2162 1 6.60341 -5.21035 -3.85807 
2721 1 5.94492 -5.53919 -4.20148 
517 1 -6.73652 -3.68552 -4.24405 
3375 2 -6.23428 -3.766 -3.14311 
1144 1 -5.9311 -3.77678 -4.2541 
2218 1 -4.98869 -4.64448 -4.4489 
525 1 -5.2291 -3.41707 -3.88367 
3536 2 -3.83429 -4.65574 -4.02879 
3376 2 -3.89452 -3.87822 -3.91419 
104 1 -2.81311 -3.62133 -4.01736 
2524 1 -3.00001 -4.06307 -4.6437 
2310 1 -2.60799 -4.66231 -4.00301 
3480 2 -1.61503 -4.45509 -4.52598 
984 1 -0.401261 -3.1014 -3.7373 
3285 2 -1.50105 -3.68121 -4.43329 
1431 1 -0.761532 -4.15725 -3.75937 
527 1 -0.320222 -4.00708 -4.5786 
1998 1 0.539591 -4.48069 -4.13919 
2102 1 1.30586 -4.00151 -4.03048 
1863 1 1.06578 -3.66547 -3.34714 
1946 1 2.75349 -4.19326 -4.64633 
2599 1 2.16703 -3.02404 -4.34193 
3320 2 2.27313 -3.63871 -3.22389 
797 1 3.34455 -3.70344 -3.57342 
2857 2 4.43159 -3.89624 -4.29322 
1034 1 5.4556 -3.78494 -4.28397 
2365 1 5.33952 -4.20741 -3.62149 
587 1 5.25314 -3.00247 -3.44303 
2288 1 6.79167 -4.12459 -3.64628 
844 1 7.071 -3.31424 -3.56852 
2571 1 6.03967 -4.48427 -3.96006 
2109 1 6.02636 -3.50717 -3.71373 
1999 1 -6.56144 -2.81795 -4.38654 
90 1 -6.23933 -1.90306 -3.90967 
2350 1 -7.06257 -2.42855 -3.65389 
1542 1 -4.92836 -2.09382 -4.00037 
1627 1 -4.8164 -2.7993 -4.28968 
1325 1 -5.79093 -2.70076 -3.95099 
3229 2 -4.10307 -2.3465 -3.38075 
3083 2 -4.00203 -3.11297 -3.75376 
1979 1 -3.11585 -2.67101 -3.90005 
481 1 -3.06689 -1.98167 -2.97182 
128 1 -1.00335 -2.35885 -4.30139 
2237 1 -1.11126 -2.60278 -3.45055 
3198 2 -2.13525 -2.31822 -3.97895 
2916 2 -1.83775 -3.06336 -4.20297 
635 1 0.266319 -3.59614 -3.92431 
2020 1 0.044652 -2.33125 -3.46051 
535 1 0.787845 -2.98277 -3.52275 
2182 1 1.46353 -3.18232 -4.13023 
2411 1 2.51699 -2.15925 -4.04268 
593 1 2.87545 -3.39522 -4.26544 
1239 1 3.02837 -2.6625 -3.5685 
3353 2 4.24617 -3.2974 -3.96643 
3134 2 4.15142 -2.58483 -3.61982 
423 1 5.33892 -2.6317 -4.1316 
1031 1 6.04099 -2.77369 -3.40101 
3116 2 6.45421 -2.81659 -4.5547 
2856 2 6.36334 -2.01361 -4.10808 
2993 2 -5.86623 -1.1765 -4.73198 
346 1 -6.8482 -1.98978 -4.4058 
2351 1 -6.699 -1.13031 -3.69741 
2296 1 -5.61246 -1.50373 -3.3872 
2302 1 -5.08259 -1.11874 -3.99597 
56 1 -4.10547 -1.86406 -4.44424 
923 1 -4.27422 -1.07156 -4.38697 
1428 1 -3.6852 -0.97764 -3.90346 
1064 1 -3.326 -1.84175 -3.70352 
572 1 -2.99852 -1.14972 -4.45851 
2748 2 -2.23695 -0.636947 -3.55726 
2766 2 -2.10762 -1.50625 -3.78856 
2426 1 -1.21232 -1.48977 -4.39994 
871 1 -0.970568 -1.10959 -3.74893 
3354 2 0.0694504 -1.88235 -4.4486 
247 1 -0.641512 -1.8362 -3.51597 
3585 2 0.0631603 -1.08712 -4.39643 
692 1 0.757021 -0.554657 -3.35896 
349 1 1.51844 -2.28386 -4.07926 
236 1 1.14573 -1.10909 -3.79355 
2545 1 2.02048 -1.39334 -3.87277 
1119 1 3.39043 -1.6533 -4.32826 
2722 1 3.0098 -0.700443 -4.10483 
2914 2 4.08389 -1.69263 -3.43437 
985 1 3.69319 -0.621033 -4.64727 
2211 1 4.73407 -2.07658 -4.31412 
3483 2 3.88161 -0.857051 -3.22135 
2225 1 5.19223 -1.75323 -3.61472 
1664 1 5.2113 -0.948641 -3.19731 
2215 1 7.13129 -1.65253 -3.42946 
1882 1 -7.11857 -0.948016 -4.29445 
2902 2 6.22672 -1.17113 -3.89334 
1720 1 6.93657 -0.736511 -3.23955 
319 1 -6.7746 -0.32319 -3.39399 
3186 2 -6.32261 0.261112 -4.49875 
523 1 6.93498 0.765065 -4.13039 
1913 1 -5.93606 -0.821412 -3.23878 
1835 1 -4.9344 0.0480075 -4.16245 
443 1 -5.4079 -0.250646 -3.66992 
1446 1 -4.16466 -0.0235102 -4.13214 
2718 1 -4.45011 0.875963 -3.80812 
2789 2 -2.30671 0.152672 -3.61141 
2529 1 -3.14042 -0.341746 -4.11833 
2241 1 -1.40349 0.693129 -4.0953 
2395 1 -1.01015 -0.181832 -3.56134 
2108 1 -1.32279 1.11794 -3.31701 
3500 2 -0.0684992 -0.393948 -4.40313 
3555 2 -0.140203 0.396814 -4.16943 
1432 1 0.967372 -0.335607 -4.5081 
2489 1 0.948339 0.286455 -3.83256 
1531 1 1.75472 -0.301525 -3.83035 
188 1 2.57267 0.0871742 -3.652 
1195 1 1.79116 0.566079 -3.59595 
583 1 2.75244 0.763228 -4.02576 
31 1 3.43893 0.163542 -4.33979 
1299 1 4.40524 -0.0940088 -4.28127 
1307 1 4.97531 -0.680671 -3.84084 
296 1 5.23105 -0.0909448 -4.56572 
2147 1 4.72743 0.245257 -3.65072 
3209 2 5.78335 0.325973 -3.66909 
817 1 7.10126 -0.00613435 -4.07751 
2819 2 6.15741 -0.341515 -3.9667 
3263 2 -6.42799 0.923542 -4.16626 
3260 2 -6.3704 1.7319 -4.1668 
1572 1 -5.53485 0.800996 -3.70119 
1343 1 -5.67575 1.53518 -3.30413 
111 1 -4.96838 1.54816 -3.84133 
2278 1 -5.37276 1.39264 -4.52302 
978 1 -3.45858 1.7328 -4.0235 
827 1 -3.51533 0.890008 -4.17164 
1607 1 -4.14702 1.897 -3.65866 
400 1 -2.88031 1.067 -4.85475 
1316 1 -2.55883 1.96606 -4.33423 
892 1 -1.77355 1.75719 -3.81528 
3196 2 -0.681001 1.82611 -3.92063 
683 1 -1.94977 1.24227 -4.49582 
2950 2 -0.355481 1.1991 -4.20954 
1374 1 0.640391 1.53636 -3.92964 
2406 1 0.922738 0.737393 -4.51854 
1700 1 1.5679 1.36602 -3.54648 
3241 2 1.68609 2.05268 -4.36529 
1501 1 3.00889 1.48492 -4.3723 
922 1 2.60232 1.46409 -3.50491 
1185 1 3.78271 0.908977 -4.21919 
556 1 3.59058 1.87746 -3.99175 
1703 1 4.47324 1.35736 -3.76998 
1151 1 4.81795 0.746792 -4.41493 
3369 2 5.83953 1.11765 -3.50315 
2976 2 5.51021 1.87276 -3.56525 
2297 1 6.9323 0.583846 -4.85817 
1888 1 6.90518 1.51682 -3.75628 
3033 2 -6.6153 2.43453 -3.98129 
2751 2 -6.76335 3.11926 -3.70444 
2061 1 -4.76057 2.75198 -3.35759 
710 1 -5.53456 3.30218 -3.43459 
1063 1 -5.34231 2.326 -3.99828 
2597 1 -3.76914 3.62657 -3.64137 
1483 1 -3.84759 2.81275 -3.55758 
1775 1 -1.86549 3.54333 -3.96549 
154 1 -3.2045 2.49845 -4.1345 
2563 1 -1.45617 2.89013 -4.55581 
1110 1 -2.17373 2.63994 -4.00094 
2860 2 -0.689355 2.65355 -3.76353 
441 1 0.219211 3.46526 -4.24295 
2442 1 0.529758 2.47595 -3.97834 
630 1 0.441587 3.15759 -3.57191 
3063 2 1.73204 2.95718 -4.2142 
1012 1 1.16177 2.16698 -3.34405 
620 1 2.67929 2.33145 -3.72281 
130 1 2.13212 3.15433 -3.25214 
970 1 3.42554 2.71234 -3.89289 
763 1 4.20556 2.21592 -3.73522 
2327 1 5.80669 2.09055 -4.5769 
2497 1 4.886 2.33009 -4.33725 