ITEM: TIMESTEP
12000
ITEM: NUMBER OF ATOMS
3594
ITEM: BOX BOUNDS pp pp pp
-7.1996862039116785e+00 7.1996862039116785e+00
-7.1996862039116785e+00 7.1996862039116785e+00
-7.1996862039116785e+00 7.1996862039116785e+00
ITEM: ATOMS id type x y z 
1148 1 -6.94441 -7.10228 -6.53471 
1616 1 -6.90172 -6.3339 -6.36865 
1282 1 -6.0624 -6.91774 -6.47951 
3477 2 -4.8816 6.63563 -5.9904 
601 1 -4.81929 -6.32457 -6.97515 
2122 1 -3.69389 -5.84739 6.92843 
2058 1 -4.07438 -6.21496 -6.58362 
1246 1 -4.12835 -5.42752 -6.52788 
1465 1 -4.35624 -4.52011 -6.03713 
3454 2 -2.47039 -7.0713 -6.58732 
2627 1 -2.07529 -5.83349 -5.89302 
3268 2 -2.94704 -6.51087 -6.81754 
2238 1 -1.8664 -5.87667 -6.99465 
448 1 -0.86302 -6.5793 -5.89976 
26 1 -1.54154 -6.40885 -6.41927 
3368 2 -0.491695 -6.48008 -7.22748 
1088 1 0.268928 -7.06523 -6.21759 
1702 1 -0.517476 7.01207 -6.08848 
1966 1 0.353705 -5.82427 -7.1518 
1905 1 0.873284 -6.45857 -6.64733 
40 1 1.78949 -6.00157 -6.29204 
1634 1 2.49849 -5.89263 -6.87249 
245 1 1.83434 -6.80008 -6.5647 
3442 2 3.52907 -7.21356 -6.49538 
589 1 4.53638 -6.81158 -6.42879 
3208 2 5.5834 -6.80764 -6.99959 
2812 2 5.43821 -6.15493 -6.6594 
329 1 4.40426 -5.69932 -5.91434 
112 1 6.31981 -5.97479 -5.87654 
274 1 6.50173 -6.88012 -6.19625 
1258 1 6.65444 -5.99927 -6.70328 
558 1 -5.74402 -6.14931 -6.79009 
3495 2 -6.88626 -4.55834 7.18091 
1459 1 -5.84466 -5.36693 6.99511 
1918 1 -5.27251 -4.53923 -6.59177 
2023 1 -5.03298 -5.39174 -6.71446 
606 1 -3.64565 -5.05731 7.06152 
1087 1 -2.86027 -4.38665 7.21284 
1071 1 -4.2014 -4.12455 -5.25121 
2944 2 -2.95506 -5.82281 -6.4761 
3574 2 -3.11289 -4.97654 -6.35327 
722 1 -1.97084 -3.63873 7.18027 
3019 2 -0.697618 -5.68995 -7.1316 
2139 1 -1.93 -5.17626 -6.51834 
594 1 -1.99882 -5.16096 7.06601 
685 1 0.357272 -6.01995 6.38992 
1582 1 0.233408 -5.45073 -6.24671 
579 1 1.04935 -5.64059 -6.43854 
480 1 2.01831 -5.38531 -4.89209 
271 1 0.157303 -5.05216 6.9588 
2379 1 2.04347 -5.13193 -6.61165 
2957 2 3.31397 -6.61587 -6.08065 
2590 1 2.89915 -4.84814 -6.73651 
1695 1 3.75241 -4.46158 -6.85167 
628 1 4.28131 -6.10378 -6.76317 
2407 1 3.99926 -4.02287 -5.82404 
645 1 4.42114 -5.17076 -7.22603 
638 1 4.81543 -5.89865 6.85961 
3212 2 5.34636 -5.4031 -6.71628 
3266 2 5.20419 -4.55451 -6.37186 
802 1 6.38192 -4.27989 -6.72541 
10 1 6.54792 -5.11579 -6.2439 
2348 1 6.37601 -5.28319 -7.06294 
1954 1 -7.00781 -5.46425 -6.04659 
3029 2 -7.04657 -3.8177 -7.09051 
659 1 -6.38977 -4.42194 -6.20772 
2045 1 -5.75654 -3.67844 -6.49008 
472 1 -5.27631 -2.89631 -6.39022 
1671 1 -4.97315 -3.71835 -6.39478 
923 1 -4.0774 -4.52648 -6.78038 
386 1 -2.0246 -4.39689 -6.80264 
909 1 -2.02519 -4.91519 -5.66037 
520 1 -1.97398 -4.08445 -6.07009 
1315 1 -2.99256 -2.40802 -6.71303 
2981 2 -3.09864 -4.30361 -6.07632 
3484 2 -0.790192 -5.06289 -6.68281 
2808 2 -0.727998 -4.26005 -6.58035 
1940 1 0.519535 -4.37597 6.38091 
502 1 -0.148411 -3.28764 -6.63204 
1462 1 -0.0426809 -3.97681 6.96902 
2589 1 1.15699 -4.80262 -6.22921 
1425 1 1.47071 -4.06656 -5.99223 
1168 1 3.1938 -3.89091 -6.61264 
2599 1 2.22867 -4.08377 -6.59833 
2287 1 2.37558 -3.46819 6.99101 
2631 1 4.44733 -3.94437 -6.97134 
1385 1 4.39455 -3.67501 -5.06535 
2767 2 5.20179 -3.77057 -6.10409 
1362 1 5.43377 -3.85996 7.06361 
1788 1 6.34841 -3.40262 -6.25494 
1320 1 7.15068 -3.69366 -5.78115 
2510 1 -6.33187 -2.02797 6.55931 
670 1 -6.4331 -2.6329 -6.02729 
2132 1 -5.49558 -2.04348 -6.23999 
1800 1 -4.21729 -3.71033 -6.63301 
2699 1 -4.25669 -2.64774 -6.4035 
1001 1 -3.94104 -2.3298 -7.19401 
1445 1 -2.29211 -1.87126 -6.82711 
1370 1 -2.48786 -3.28054 -6.36144 
1822 1 -2.09717 -1.27805 6.19386 
821 1 -2.76025 -1.18162 -6.39957 
3332 2 -1.14852 -3.4586 -6.36838 
3234 2 -1.38173 -2.68686 -6.23425 
2368 1 -0.469865 -2.03064 -6.80038 
644 1 -0.243862 -2.85562 7.15397 
1767 1 1.46043 -2.86882 -5.6016 
3503 2 1.15093 -3.08728 -7.06967 
1738 1 2.81482 -2.93251 -6.6385 
1635 1 1.9147 -2.36948 7.06436 
799 1 2.01238 -3.25664 -6.36133 
2183 1 3.93239 -3.41049 -6.49286 
1806 1 4.12843 -2.59697 -6.72108 
985 1 3.72432 -3.13622 -5.61503 
2530 1 5.97542 -1.76561 7.10771 
3550 2 5.03686 -2.99106 -5.99104 
2975 2 -7.04687 -3.17218 -6.7793 
3126 2 7.00121 -2.45515 -6.68153 
734 1 5.90835 -2.5604 -6.3842 
194 1 -6.22388 -1.3251 -6.30594 
1207 1 -6.71785 -1.93369 -5.73777 
3360 2 -5.29261 -1.27789 7.09043 
2578 1 -4.1599 -1.54013 -7.17142 
1514 1 -4.81598 -1.59215 -5.3303 
2195 1 -4.24858 -1.68884 6.4262 
2641 1 -4.51978 -0.764329 -6.08766 
911 1 -3.50272 -1.56878 -6.63338 
1815 1 -2.11915 -0.904862 7.15999 
1106 1 -1.04349 -0.604976 -7.03846 
3105 2 -1.46137 -1.74435 -6.16696 
2381 1 -0.271815 -1.11276 -6.1378 
2480 1 -0.398283 -1.10684 -5.33817 
886 1 2.2077 -1.325 -6.5101 
1837 1 1.77416 -0.515891 -6.97822 
2804 2 0.768697 -1.63408 -6.92071 
3347 2 0.627205 -2.43808 -6.98146 
2390 1 1.80489 -2.34994 -6.42417 
925 1 2.79299 -2.00906 -6.44507 
1587 1 1.72973 -1.63722 -7.08444 
2500 1 3.43381 -2.44964 -6.16229 
2617 1 3.6269 -1.73101 -6.70733 
483 1 4.8242 -1.30151 -6.92022 
2068 1 5.61623 -0.794261 -6.01575 
377 1 5.59462 -1.5765 -6.39136 
3087 2 6.91913 -1.55522 -6.58129 
2840 2 6.73715 -0.795229 -6.32253 
1414 1 5.79389 -0.975511 -7.09118 
1340 1 -6.50339 -0.601523 -6.50347 
1138 1 -6.57239 0.368395 6.93767 
3097 2 -5.48025 -0.597677 -6.93731 
3127 2 -5.6897 0.107715 -6.78078 
443 1 -5.0525 -0.00818325 -5.83067 
83 1 -4.63697 -1.64223 -6.36246 
2677 1 -3.38425 -0.576081 -6.29752 
499 1 -4.66134 0.261646 -6.91368 
1928 1 -2.84539 -0.541158 -5.29823 
395 1 -2.48219 -0.206857 -6.66025 
1074 1 -1.00116 0.746365 -5.97195 
1457 1 -1.67242 0.121989 -7.00583 
3200 2 -1.40976 -0.890853 -6.02751 
2796 2 -1.80353 -0.127085 -5.74469 
1993 1 -0.675768 -0.265519 -6.25716 
3151 2 0.782792 -0.796864 -6.60118 
3088 2 0.441358 0.0515974 -6.47146 
2558 1 1.42964 0.330749 -7.00733 
1432 1 1.67256 -0.743762 -6.03311 
1859 1 3.05052 -1.37211 -6.10002 
1834 1 3.44516 0.138507 -6.09352 
2960 2 2.62759 0.248578 -7.08104 
3195 2 2.81579 -0.571748 7.18848 
2535 1 3.54165 -0.658978 -6.28587 
873 1 4.09037 -0.270929 -6.77361 
42 1 3.76635 0.504539 -6.76005 
2086 1 4.87962 -0.404224 -6.55141 
234 1 5.44457 0.159346 -5.82494 
2797 2 6.52294 -0.00797998 -6.16137 
3135 2 6.39753 0.879326 -5.93668 
3007 2 -5.84936 0.832985 -6.54967 
3140 2 -5.91145 1.60788 -6.32889 
1670 1 -4.9315 1.09583 7.09865 
519 1 -4.41497 0.87807 6.09339 
3148 2 -3.88174 1.00462 6.94422 
2560 1 -4.41007 1.6856 -5.75322 
2300 1 -4.04928 0.113574 -6.3245 
580 1 -3.04983 0.47208 -6.28967 
1965 1 -2.00411 1.87054 -6.61065 
337 1 -2.77014 1.41459 -6.52562 
1116 1 -1.25579 1.79478 -5.881 
1265 1 -1.13868 1.40233 -6.74913 
1353 1 -1.05646 2.17177 -6.6554 
3311 2 0.202688 0.826394 -6.21925 
2928 2 0.015383 1.57071 -6.15124 
1368 1 1.28834 1.59542 -7.03877 
693 1 1.76 1.02542 6.86935 
3459 2 2.46316 0.999072 -6.88534 
175 1 3.24729 1.10022 -5.923 
2231 1 3.4423 2.20027 -6.76364 
2380 1 3.69636 1.3236 -6.54909 
50 1 4.04734 2.01268 -6.03294 
1176 1 4.63103 1.26732 -6.47534 
850 1 4.66298 0.450603 -6.47938 
1455 1 -6.78431 1.32616 -7.11362 
263 1 6.62892 1.14631 -7.08943 
2637 1 5.59701 1.67337 -6.71321 
3465 2 -6.13678 2.34464 -6.0698 
2305 1 -6.93274 2.07464 -6.78434 
577 1 7.16928 3.03064 -6.52821 
1410 1 -4.87678 2.49953 7.07443 
2386 1 -5.25418 3.0129 -6.74242 
1224 1 -4.98544 1.88912 -6.64446 
1233 1 -5.95671 3.46151 -7.00956 
3093 2 -3.66692 1.63334 -6.974 
2783 2 -4.00719 2.28234 -6.76731 
1933 1 -2.24155 2.88494 -6.20106 
2505 1 -2.65247 2.85662 6.20749 
1833 1 -2.89868 2.14434 -5.96956 
732 1 -3.31945 3.01859 -5.86348 
855 1 -0.728975 3.15216 -6.9665 
1932 1 -1.22177 3.55924 -6.43895 
902 1 -0.389758 1.44024 7.18072 
474 1 -0.697964 2.61848 6.58604 
3078 2 -0.219673 2.27976 -6.00513 
1525 1 -0.22771 2.26599 7.17958 
1817 1 -0.0432179 3.75107 -6.79692 
673 1 0.289454 2.90996 -6.81103 
1516 1 0.84819 2.13673 -6.66448 
3393 2 2.40563 1.82951 -6.74969 
3417 2 2.04314 2.46962 -6.44904 
268 1 3.35963 2.7133 -6.03217 
2711 1 4.55285 2.7189 -5.73833 
1286 1 3.02457 2.90738 -6.98439 
2414 1 4.82153 3.45238 -5.08529 
2066 1 5.15461 3.01954 -6.16233 
2092 1 5.20621 2.00804 -6.02294 
2072 1 6.68707 2.08159 -6.56327 
1883 1 5.95596 2.6751 -6.34742 
2736 2 -6.30902 3.14292 -6.00987 
3238 2 -6.43591 4.03486 -5.827 
402 1 -7.07881 4.00405 -6.59889 
2685 1 -4.92523 3.26526 -5.86626 
718 1 -5.35592 3.92801 -6.37905 
3408 2 -4.19145 3.19938 -6.77373 
3411 2 -4.23524 3.96455 -6.46495 
488 1 -3.10611 3.01419 -7.01488 
1264 1 -3.17929 2.30351 6.65725 
1102 1 -2.67167 4.6211 -6.20478 
3098 2 -1.8462 4.28153 -7.07624 
1623 1 -0.785942 4.30392 -6.79873 
353 1 -1.46476 4.57065 -6.17355 
586 1 0.255815 4.39556 -6.47035 
1486 1 0.59456 4.6893 -5.76461 
2429 1 0.692638 3.70476 -5.87988 
3466 2 1.79192 3.91389 -6.00533 
3478 2 2.11048 3.18854 -6.31254 
486 1 2.75888 4.34468 -6.60471 
1346 1 2.10699 4.24413 7.19718 
1113 1 2.70847 3.93981 -5.43146 
785 1 3.08365 3.67644 -6.37568 
1066 1 3.93199 3.46804 -5.70068 
3551 2 4.07158 3.56386 -6.8514 
3223 2 4.0575 4.43067 -6.77425 
908 1 4.93991 3.90931 -6.01204 
2377 1 5.13719 3.97059 7.12379 
131 1 6.42134 3.52837 -6.27146 
889 1 5.64783 3.92365 -6.48116 
1760 1 7.00198 3.46953 -5.60743 
1594 1 -6.53568 5.15632 -6.79933 
1631 1 -6.15813 4.32657 -6.8572 
585 1 7.22197 5.32538 6.77868 
2191 1 -5.45478 4.78254 -7.00277 
1697 1 -5.77884 5.68024 -6.77401 
3471 2 -4.52265 4.69989 -6.41791 
343 1 -3.171 3.81751 -6.59818 
3306 2 -2.23883 4.97776 -7.15822 
1394 1 -2.74693 5.36142 -5.73601 
2839 2 -2.44882 5.69649 -6.83118 
1230 1 -0.681494 5.2062 -6.52999 
741 1 -1.40093 6.0686 7.19409 
883 1 -1.95356 5.18278 -5.90889 
2630 1 -0.594453 6.02209 -6.47048 
1685 1 0.248128 5.39474 -6.50365 
1744 1 -1.4533 5.84145 -6.23412 
2000 1 1.07528 3.77721 -6.91935 
3138 2 1.64485 4.75593 -6.02203 
2831 2 1.49275 5.59621 -5.99579 
2415 1 1.97138 6.83744 -6.74153 
1689 1 2.64069 5.08982 -6.06538 
862 1 2.49994 6.51165 -6.07591 
215 1 2.53047 5.83528 -6.5727 
2790 2 3.60318 4.94549 -7.02119 
865 1 4.7 6.1508 -5.84917 
255 1 5.03121 4.8068 7.12584 
1247 1 4.60837 5.18258 -5.92401 
2172 1 4.93486 4.67309 -6.43401 
141 1 6.52714 4.45056 -5.96412 
365 1 7.00531 4.75438 -6.81657 
115 1 6.71223 5.48458 -6.38748 
2662 1 -6.51771 6.52025 -6.6379 
1772 1 -5.44193 7.11237 -4.88958 
1413 1 -7.07497 5.87205 -6.83957 
2396 1 -5.56518 6.55053 -6.90171 
1396 1 -6.03275 7.0801 -5.56339 
2437 1 -4.77518 5.88736 7.04263 
3150 2 -4.38003 6.19652 -6.20742 
3463 2 -4.63022 5.50619 -6.4276 
2576 1 -3.31831 4.64374 -6.93789 
1235 1 -3.56567 6.71568 -6.58203 
2832 2 -2.52275 6.4942 -6.68449 
345 1 -1.33477 6.7377 -6.48552 
798 1 0.196664 6.25961 -6.45627 
1652 1 -1.56493 -6.98424 -7.15916 
1435 1 0.243743 6.59792 -5.57597 
1308 1 0.966489 5.78857 -7.17383 
1261 1 1.79577 6.01734 -6.9221 
1333 1 0.968307 6.91783 -6.88466 
3587 2 3.70148 6.31338 -6.4483 
3569 2 3.71948 5.58343 -6.62591 
2787 2 5.67212 6.75152 -6.94237 
2594 1 5.48732 6.51613 -5.88508 
1927 1 5.85232 4.77572 -6.29471 
795 1 4.84057 5.51695 -6.64827 
1879 1 6.78965 6.65332 -6.7835 
3539 2 5.90022 6.03392 6.95753 
2574 1 -6.27625 -6.12085 -6.02081 
1555 1 -6.26355 -5.62332 -5.25341 
2747 2 -7.1244 -7.18809 -5.41326 
1490 1 -5.89684 -6.56449 -5.04947 
2727 1 -4.78246 -6.78693 -4.36382 
3520 2 -4.93096 -7.06238 -6.01006 
1885 1 -5.32018 -6.208 -4.64979 
964 1 -4.10807 -6.85518 -5.15022 
1784 1 -4.07786 -5.89501 -5.71533 
977 1 -3.75486 -7.03011 -5.93542 
715 1 -2.99669 7.18822 -5.63209 
1227 1 -2.55557 -6.39942 -5.44659 
1725 1 -3.38304 -6.25933 -5.52972 
3455 2 -1.37417 -6.62764 -4.75586 
1107 1 -0.00108662 -6.20186 -6.19505 
2491 1 -0.00471487 -6.73177 -5.3309 
1210 1 -0.308547 -5.8272 -5.42151 
2096 1 -0.344245 -7.18174 -4.0859 
3128 2 0.975137 -6.34169 -5.42083 
2978 2 1.22396 -7.21044 -5.74288 
1992 1 1.96166 -7.1607 -4.83722 
2145 1 2.23306 -6.08966 -5.49272 
893 1 3.01338 -6.3829 -5.02822 
440 1 3.96493 7.06248 -4.18934 
2656 1 3.7779 -6.49342 -4.37232 
2051 1 4.38014 -6.47757 -5.59849 
1295 1 5.18553 -6.94247 -5.80533 
1051 1 5.97936 -6.6828 -5.60109 
2926 2 4.89636 -6.67906 -4.53674 
2136 1 5.39525 -5.94454 -5.43729 
3487 2 7.13859 -6.35315 -5.1755 
1718 1 -6.02772 -5.29946 -6.5159 
1893 1 -6.08679 -5.03075 -4.53083 
2269 1 -6.49794 -4.71919 -5.30297 
3416 2 -5.12587 -6.34925 -5.81619 
3325 2 -5.15441 -5.49252 -5.61423 
582 1 -4.46471 -5.01441 -4.86375 
2612 1 -3.91093 -5.10334 -5.51745 
1609 1 -4.28325 -5.95656 -4.9633 
401 1 -2.31807 -4.91745 -3.47022 
1691 1 -2.39544 -5.3739 -5.13507 
1344 1 -3.17366 -5.42392 -5.28624 
104 1 -2.49267 -4.87416 -4.43887 
15 1 -0.997785 -5.76288 -5.88093 
3594 2 -1.48575 -5.89249 -4.92202 
3322 2 -1.31856 -5.12184 -4.58572 
995 1 -1.21161 -4.80495 -5.6432 
687 1 -0.234101 -5.16541 -4.7155 
2826 2 0.792364 -5.58353 -5.24322 
3068 2 0.661445 -4.7089 -5.22856 
2298 1 1.45244 -5.66593 -4.32301 
1416 1 1.88448 -6.3903 -4.7835 
224 1 2.89223 -5.68421 -4.86582 
2712 1 2.60398 -4.90889 -4.49807 
2933 2 3.2444 -5.79302 -6.06173 
1976 1 4.05903 -4.92765 -6.1685 
281 1 3.91307 -5.84894 -5.08456 
2479 1 6.05972 -4.94805 -5.59192 
538 1 5.08387 -5.18195 -5.49757 
1373 1 6.16817 -3.95867 -5.57133 
2828 2 6.93501 -5.5303 -5.10174 
3010 2 6.91576 -4.72024 -4.76649 
317 1 5.66951 -4.60237 -4.91046 
346 1 -6.37497 -3.50598 -5.98062 
1673 1 -6.68392 -4.38653 -4.05976 
2912 2 -5.43844 -4.72237 -5.61719 
647 1 -4.49953 -3.26275 -4.88801 
2496 1 -3.43834 -3.60984 -4.75446 
2248 1 -3.41425 -4.3884 -4.97467 
477 1 -4.4657 -3.27516 -5.68294 
1979 1 -2.88593 -2.89876 -4.64778 
1143 1 -2.65041 -4.29973 -5.11263 
1643 1 -0.52185 -4.14823 -5.26615 
2426 1 -1.48157 -4.01557 -5.45572 
842 1 -0.262568 -4.91399 -5.68819 
527 1 0.349292 -3.84645 -6.02229 
2768 2 0.686472 -3.93521 -4.91247 
2102 1 0.37776 -4.86649 -4.11172 
2178 1 1.71026 -3.56854 -5.13198 
3249 2 2.99397 -5.00942 -5.68493 
3014 2 2.80454 -4.17998 -5.56735 
2150 1 4.22678 -4.7526 -5.4019 
1472 1 3.50571 -2.96615 -4.82457 
388 1 3.58846 -4.00873 -4.84709 
85 1 4.9984 -4.37377 -5.16164 
1526 1 5.48022 -3.95331 -4.33478 
3080 2 6.71085 -3.94428 -4.72534 
639 1 7.01541 -4.47952 -5.93779 
1872 1 -6.5873 -3.92021 -5.19682 
304 1 -6.40371 -1.90123 -6.61779 
1301 1 -6.92577 -2.31207 -4.92988 
2737 2 -5.49756 -4.02882 -5.33013 
2890 2 -5.60358 -3.04314 -5.2842 
1581 1 -4.64204 -2.35258 -5.65484 
2309 1 -4.54439 -2.37661 -4.72127 
3061 2 -3.46223 -3.56423 -5.94587 
3041 2 -3.37999 -2.74525 -5.72014 
2524 1 -2.33758 -3.52049 -5.201 
37 1 -1.61281 -2.05642 -5.12757 
2706 1 -2.40371 -2.03749 -5.87905 
2549 1 -2.22827 -2.78368 -5.51124 
1380 1 -0.657728 -2.19812 -5.64832 
139 1 -0.355425 -3.3827 -5.69369 
3227 2 0.431954 -3.16169 -4.63 
484 1 -0.101061 -2.64023 -6.05502 
3430 2 0.327916 -2.48499 -4.96621 
1618 1 1.01396 -2.21826 -5.97886 
1984 1 0.366792 -4.48076 -6.62396 
1953 1 0.734954 -3.16612 -5.96858 
1946 1 1.4036 -2.01223 -5.0964 
2830 2 2.63147 -3.2864 -5.52721 
3356 2 2.55332 -2.39277 -5.45237 
1313 1 4.09768 -2.40924 -4.87616 
1034 1 4.88333 -3.04202 -4.84283 
2211 1 5.08683 -2.08252 -4.56989 
879 1 3.16978 -2.3556 -4.47713 
1830 1 5.63094 -2.37079 -5.15076 
2130 1 5.9557 -1.6988 -5.59827 
2972 2 4.68503 -2.32619 -5.73061 
847 1 5.71272 -3.41346 -5.13285 
452 1 7.15218 -2.84194 -5.48495 
720 1 6.85511 -1.86136 -5.45482 
2974 2 -5.70268 -2.35796 -5.18538 
1369 1 -5.85353 -0.43591 -5.79629 
493 1 -5.38925 -1.28908 -5.99205 
2993 2 -5.96318 -1.66634 -4.94257 
1835 1 -4.78978 -1.4976 -4.40539 
1841 1 -6.2679 0.418585 -5.6227 
2869 2 -3.60235 -1.90347 -5.59423 
2844 2 -3.85442 -1.13434 -5.28254 
1790 1 -2.3844 -1.20258 -5.46414 
1064 1 -0.917339 -2.42692 -4.86435 
1864 1 -2.57992 -2.02644 -4.9267 
2601 1 -2.9998 -0.928784 -4.51247 
1484 1 -0.954206 -1.3136 -4.19778 
871 1 -1.70499 -1.22602 -4.9478 
2105 1 0.150671 -1.9706 -5.96659 
2395 1 -0.89481 -1.45168 -4.96474 
84 1 1.53326 -1.71156 -5.97384 
1890 1 1.18624 -0.602725 -5.1315 
2605 1 0.226792 -0.506086 -5.45277 
3557 2 2.35562 -1.59869 -5.33582 
3449 2 2.363 -0.806626 -4.99245 
72 1 3.57109 -1.94391 -5.45235 
2336 1 3.39677 -0.8306 -5.22527 
110 1 4.30129 -1.58547 -4.73585 
2352 1 4.90095 -1.00598 -4.56405 
140 1 5.80881 -0.601398 -5.18532 
2995 2 4.55309 -1.58856 -6.06321 
153 1 4.88079 -1.15047 -3.74843 
1496 1 6.20805 -2.81477 -5.58386 
1145 1 -6.68818 -1.04688 -5.55351 
2054 1 -7.12365 -0.622866 -4.20533 
3267 2 -6.15483 -0.808984 -4.623 
806 1 -6.8372 0.272793 -6.66714 
1402 1 -6.81456 -0.0627033 -5.63708 
3186 2 -6.22027 0.00811916 -4.52107 
2180 1 -4.42788 1.02235 -6.4426 
1551 1 -5.50221 0.329108 -5.16222 
3543 2 -4.01635 -0.32475 -5.11912 
3256 2 -4.16912 0.447318 -5.17106 
2077 1 -2.61573 0.236223 -4.68354 
2718 1 -3.14624 0.30079 -5.46139 
1268 1 -2.00316 -0.453261 -4.6986 
400 1 -1.2798 -0.438727 -4.38986 
1094 1 -0.952142 -0.429298 -5.11533 
1057 1 0.704771 -1.27581 -5.59899 
75 1 -0.397468 0.17736 -5.51319 
3443 2 1.8656 0.5994 -4.70527 
2489 1 0.458112 0.304399 -5.22056 
1241 1 2.86111 -0.457656 -6.05764 
3383 2 2.22706 -0.0742054 -4.93335 
1185 1 2.8028 1.10826 -5.1473 
859 1 3.28549 0.147039 -5.20419 
296 1 3.51209 0.137094 -4.43495 
3317 2 4.3981 -0.8124 -5.64403 
2848 2 4.46481 -0.066173 -5.50979 
455 1 5.43427 0.497076 -4.99605 
1648 1 5.19058 -0.286022 -4.5452 
1466 1 4.86832 0.775203 -4.30921 
34 1 6.58934 -0.89859 -5.29042 
2297 1 6.28505 0.108523 -5.12127 
1882 1 7.07622 -0.204126 -4.88878 
2423 1 -6.13433 1.18519 -5.2213 
2151 1 -7.00473 1.14007 -6.46291 
1584 1 -6.94162 1.69675 -5.83124 
2523 1 -5.01461 0.978322 -5.79328 
1793 1 -5.47386 1.19099 -4.82185 
857 1 -3.70047 2.00027 -5.75404 
2490 1 -3.69054 1.12309 -5.94731 
3144 2 -4.34126 1.13024 -4.84976 
1238 1 -3.1924 1.25978 -5.25048 
2846 2 -2.18434 1.4626 -5.49002 
2939 2 -2.07799 0.667952 -5.63507 
2037 1 -1.38416 2.68856 -6.1022 
1880 1 -1.16457 0.484819 -4.89359 
28 1 -0.982725 1.33475 -5.17447 
549 1 -0.293656 0.96463 -5.15194 
1257 1 -0.343563 1.88647 -4.87823 
1777 1 1.2713 0.989573 -6.38897 
1374 1 1.76629 0.0766411 -6.23011 
76 1 2.76051 0.441786 -5.9857 
2575 1 2.65491 1.5255 -4.14685 
1713 1 2.04187 0.729426 -5.77008 
171 1 2.23153 1.60623 -5.54393 
3364 2 4.23028 0.762191 -5.38136 
3388 2 4.01926 1.42421 -5.14904 
1568 1 6.08981 1.18086 -4.66771 
941 1 5.18075 0.898255 -5.75332 
3038 2 6.18034 1.62501 -5.73333 
1151 1 -7.07255 0.827237 -5.60727 
523 1 6.90614 0.753315 -4.86632 
829 1 6.98463 2.41696 -5.88419 
412 1 -5.7951 3.36239 -4.81561 
1335 1 -6.51349 2.05162 -5.01801 
408 1 -5.02001 2.3937 -5.89777 
3062 2 -4.5427 2.63836 -4.30613 
1607 1 -5.27251 1.69662 -5.43485 
2861 2 -4.43914 1.91725 -4.61006 
668 1 -4.2402 2.67499 -5.4798 
1986 1 -3.59828 3.1577 -4.79763 
3117 2 -2.24052 2.3068 -5.16853 
2945 2 -2.40325 3.09808 -5.05452 
1483 1 -3.34363 2.29821 -5.07928 
2708 1 0.395106 2.6248 -4.7781 
3444 2 -0.158686 2.9373 -5.73263 
1375 1 0.935103 2.44255 -5.48276 
1521 1 -0.387513 2.85442 -4.54907 
867 1 0.491493 1.64597 -5.10694 
2522 1 0.925622 2.90375 -6.22728 
894 1 0.59567 3.50311 -5.02405 
221 1 1.39934 1.78208 -5.82523 
2271 1 2.09779 2.54127 -5.26898 
530 1 3.04329 2.0305 -5.75653 
3433 2 3.8796 2.19772 -4.61464 
2894 2 3.75205 2.95085 -4.78796 
1778 1 4.98745 2.37498 -5.17696 
3414 2 5.91259 3.16817 -5.27808 
2703 1 4.55959 4.3277 -4.95239 
698 1 5.68252 2.079 -4.3786 
3060 2 6.13077 2.3721 -5.28877 
92 1 -6.48905 2.95658 -4.94086 
896 1 -6.14943 4.1437 -4.48402 
1169 1 -6.8455 3.65564 -4.79776 
789 1 -5.58165 4.65883 -6.1061 
2200 1 -5.37381 2.62419 -5.26042 
1543 1 -4.7753 4.31203 -5.51406 
2010 1 -5.40262 3.79891 -5.39454 
1894 1 -2.52238 3.65636 -6.23966 
1669 1 -4.31116 3.63346 -5.47801 
2495 1 -3.42624 4.09739 -5.7948 
1255 1 -3.93628 4.46092 -5.17588 
2977 2 -2.78585 3.78541 -5.03569 
2647 1 -1.53382 4.15714 -5.05776 
1499 1 -1.63767 3.54578 -5.79126 
786 1 -1.71884 4.98514 -5.16816 
2813 2 -0.375862 3.71898 -5.69621 
3378 2 -0.572259 4.55052 -5.6174 
1763 1 -0.220229 4.52767 -4.37547 
2208 1 -1.17907 3.09557 -5.17705 
482 1 1.30741 4.22525 -5.0666 
2176 1 0.315841 4.4016 -5.02966 
1639 1 1.39773 3.28251 -5.41688 
1997 1 2.77835 3.03821 -5.36836 
614 1 2.43681 4.79822 -5.20632 
3013 2 3.4835 3.66357 -4.67817 
825 1 3.15673 4.51907 -5.9045 
1390 1 4.85528 4.9358 -4.22004 
2025 1 4.22603 4.4304 -5.63171 
3298 2 5.78787 3.96474 -5.31716 
1968 1 4.64615 3.63086 -4.14499 
2541 1 6.94669 4.20706 -5.04903 
2440 1 6.67737 3.38527 -4.48512 
2546 1 6.65215 5.08591 -5.3042 
3045 2 -6.65621 4.7614 -5.70743 
2209 1 -6.82959 4.94923 -4.71598 
3147 2 -6.65398 5.65131 -5.64421 
612 1 -7.12775 5.74122 -4.4399 
2376 1 -4.91753 5.10394 -5.26674 
120 1 -5.76757 5.36541 -4.99984 
928 1 -5.62903 4.56594 -5.11305 
2687 1 -3.63894 5.02977 -5.76729 
2466 1 -3.90227 5.61058 -5.28683 
2573 1 -4.70128 5.89969 -5.02143 
2865 2 -2.74907 4.56915 -4.9017 
3458 2 -2.7385 5.47245 -4.66528 
2626 1 -2.12013 4.10328 -5.80291 
3392 2 -0.637339 5.35923 -5.37936 
849 1 0.379364 5.63598 -5.68894 
2038 1 0.505406 5.24645 -4.8761 
1201 1 -0.0901317 5.56497 -4.3874 
1709 1 1.63549 6.11209 -4.70308 
103 1 2.28525 5.52608 -5.31029 
23 1 1.38331 5.12169 -4.91912 
2762 2 3.24042 5.11662 -4.51012 
295 1 3.02078 5.86144 -5.66466 
665 1 3.51168 6.50609 -5.38836 
686 1 3.59109 5.07489 -5.63446 
2028 1 4.34801 5.28578 -4.86147 
2917 2 5.46194 4.73578 -5.21273 
2927 2 5.46551 5.53771 -5.14411 
462 1 6.36835 5.84265 -5.68421 
3330 2 -6.91259 6.31948 -5.58216 
1060 1 -6.4732 -6.79928 -4.53524 
1004 1 -5.60138 6.15087 -5.11673 
822 1 -5.53353 5.50774 -5.8545 
1318 1 -5.79542 6.28065 -5.92837 
803 1 -4.58762 6.80142 -4.87756 
2275 1 -3.84729 6.55041 -5.20128 
897 1 -2.29267 6.98969 -5.13233 
2018 1 -1.86425 5.74273 -4.95849 
1030 1 -2.98475 6.23987 -5.72943 
2326 1 -2.01919 6.40865 -5.62718 
658 1 -1.72895 -7.14619 -5.83109 
3018 2 -0.906958 7.14434 -4.99481 
3207 2 -0.839599 6.23625 -5.27893 
2322 1 0.623305 6.16879 -4.88713 
512 1 0.0244072 6.40216 -4.3527 
2899 2 1.403 6.39895 -5.66203 
1629 1 1.18786 6.83195 -4.36523 
2462 1 3.84256 -7.03398 -5.10462 
1175 1 2.85078 7.16087 -5.33186 
1249 1 2.31854 6.35143 -5.06457 
2256 1 2.28769 -6.93939 -5.78602 
1422 1 4.04352 5.8046 -5.4348 
1513 1 4.28558 6.85585 -5.66906 
404 1 5.5705 5.74675 -6.29326 
3257 2 5.31493 6.28451 -4.89398 
2971 2 5.02824 6.94324 -4.69825 
2160 1 6.43105 6.63964 -6.01087 
1667 1 6.23715 7.05732 -5.18456 
2539 1 6.53684 6.23287 -4.82702 
2469 1 6.06717 6.05935 -4.06476 
1312 1 -6.3716 -5.8099 -4.55641 
1741 1 -6.63583 -6.32775 -3.29092 
3469 2 -5.74477 -6.31773 -3.66724 
3545 2 -5.70769 -7.12196 -3.71808 
1232 1 -4.30313 6.77407 -4.06579 
2835 2 -3.45459 -6.57015 -4.36851 
2672 1 -3.772 -6.19802 -3.3211 
1252 1 -2.77215 7.02859 -3.41065 
2033 1 -2.5704 -6.32599 -3.55799 
356 1 -2.1317 -5.80384 -4.03646 
1836 1 -2.44838 -6.53916 -4.60139 
708 1 -1.44976 -6.29482 -3.73768 
1945 1 0.366986 -6.5933 -4.37961 
2969 2 0.407479 -6.23891 -3.15034 
1382 1 0.563475 7.08693 -4.8186 
2168 1 2.33373 6.99837 -3.02554 
1799 1 1.34457 -6.67109 -4.2247 
2067 1 1.68068 -7.12918 -3.47793 
3303 2 2.83959 -7.0479 -3.98138 
2315 1 3.82726 -6.25051 -3.49762 
189 1 4.39085 -6.9058 -3.50938 
244 1 6.0648 -6.59508 -3.7432 
929 1 5.24739 -6.72847 -3.4402 
1530 1 6.55147 6.96726 -4.31096 
2288 1 5.86722 -5.61402 -4.79535 
1263 1 5.97861 -6.57124 -4.64285 
2162 1 -6.9948 -6.01682 -4.02784 
3228 2 -5.61819 -5.60292 -3.46481 
2106 1 -5.27259 -5.23189 -4.58127 
138 1 -4.29819 -6.74999 -3.71782 
3413 2 -3.43279 -5.74868 -4.29625 
2332 1 -4.55078 -5.7981 -4.00398 
3562 2 -3.56437 -4.90891 -4.04424 
1728 1 -2.72307 -4.01098 -3.30672 
772 1 -3.05713 -3.21689 -2.9699 
350 1 -2.86347 -5.55473 -3.35386 
1810 1 -0.384726 -5.22835 -3.9197 
322 1 -1.3607 -5.32006 -3.49946 
728 1 -1.75101 -4.34007 -3.23321 
1468 1 -0.729698 -4.53773 -3.49416 
635 1 0.52986 -5.70941 -4.1337 
3206 2 0.24795 -5.43201 -2.9631 
1863 1 1.63318 -4.6669 -4.34754 
1065 1 1.49529 -5.4081 -2.83007 
2918 2 2.55965 -6.3393 -3.93631 
3379 2 2.54178 -5.641 -3.70027 
1653 1 3.67106 -5.68884 -4.03837 
2825 2 4.78583 -5.31223 -4.46694 
2193 1 3.00386 -5.1723 -2.58993 
3290 2 4.92935 -6.00532 -4.17142 
2571 1 5.72786 -5.41329 -3.72818 
2721 1 6.00213 -4.07103 -3.65636 
1000 1 6.62688 -5.83687 -4.06602 
1994 1 6.57346 -5.03016 -3.79314 
2695 1 5.92993 -4.82307 -4.26232 
1013 1 -6.88485 -5.27336 -3.88862 
844 1 -6.81506 -3.42865 -3.7712 
587 1 -6.00061 -3.51025 -4.15915 
2310 1 -4.79147 -4.19025 -4.48626 
1999 1 -5.71632 -4.41627 -4.164 
1733 1 -5.12407 -3.18935 -4.1015 
2388 1 -4.84429 -4.86829 -3.84779 
3536 2 -3.8944 -4.33894 -3.70999 
3376 2 -3.92565 -3.53176 -3.81337 
458 1 -2.8338 -3.92228 -4.19731 
904 1 -3.67283 -2.68028 -2.67594 
3480 2 -1.64282 -4.38569 -4.36147 
3285 2 -1.71418 -3.59542 -4.18762 
851 1 -1.00109 -3.71222 -3.48902 
1069 1 1.21819 -5.13316 -3.67886 
1611 1 0.627555 -3.9362 -3.67433 
250 1 1.48612 -2.70849 -4.6757 
1998 1 1.27542 -4.63442 -2.46981 
1237 1 1.58188 -3.68846 -4.18394 
2113 1 1.8234 -5.16641 -5.77796 
2306 1 3.72709 -5.10725 -4.77644 
1073 1 1.85614 -4.6172 -5.179 
1075 1 2.30623 -4.08505 -4.6067 
3015 2 2.39518 -3.95689 -3.40536 
3340 2 4.56089 -4.67733 -4.14373 
3244 2 4.47107 -3.92413 -3.97446 
891 1 2.98092 -3.47985 -4.32631 
2552 1 5.28916 -4.53422 -3.48238 
1493 1 5.51298 -3.06651 -4.34044 
335 1 6.8118 -4.21252 -3.70299 
656 1 -6.63926 -3.13646 -4.82274 
1707 1 -6.34975 -1.70694 -3.94946 
1144 1 -5.66001 -2.60885 -3.80372 
56 1 -5.16391 -2.15266 -4.23208 
1446 1 -3.21528 -1.91947 -4.27439 
172 1 -3.65869 -2.60292 -4.66011 
3083 2 -4.14408 -2.82855 -3.78553 
3229 2 -4.22535 -2.21207 -3.42489 
1470 1 -2.88381 -3.08915 -3.8691 
195 1 -3.07287 -2.30595 -3.48919 
3198 2 -1.92733 -1.93491 -3.93486 
2916 2 -1.82558 -2.7335 -4.20162 
128 1 -1.10535 -3.17861 -5.28357 
1722 1 -0.625187 -3.39794 -4.53977 
954 1 -0.346748 -4.21843 -4.21813 
1431 1 -0.156756 -2.84175 -3.76712 
607 1 1.20838 -2.41469 -3.95315 
2044 1 1.04405 -3.20912 -3.59825 
535 1 2.21517 -2.92745 -4.45406 
236 1 2.92468 -1.97327 -3.23604 
349 1 3.18673 -2.95455 -3.68972 
2857 2 4.31795 -3.22533 -3.78107 
3353 2 4.27417 -2.46906 -3.6953 
148 1 5.33471 -1.45371 -5.24556 
423 1 6.43082 -3.21758 -3.3835 
190 1 5.44786 -2.55885 -3.68966 
2858 2 6.48589 -2.51512 -4.40218 
3173 2 6.59462 -3.24726 -4.40402 
874 1 -6.4187 -2.59034 -4.07798 
1325 1 -7.18413 -1.85961 -3.90894 
863 1 -6.45359 -0.796564 -3.59965 
90 1 -7.05981 -1.44494 -4.70622 
960 1 -5.53301 -0.198481 -3.63583 
517 1 -5.28365 -2.29669 -2.98838 
1572 1 -5.44959 -1.16998 -3.89796 
1428 1 -5.07503 0.178661 -4.36441 
808 1 -3.90212 -0.860488 -4.11207 
2638 1 -3.23865 -1.15478 -3.49077 
111 1 -4.7339 -0.550955 -4.11697 
2766 2 -2.09777 -1.17583 -3.88478 
572 1 -4.00742 -1.6366 -4.30867 
481 1 -3.06357 -1.71416 -2.89388 
2237 1 -0.766743 -1.34704 -3.5241 
858 1 0.0452234 -1.19663 -3.30833 
2542 1 -0.702929 -2.18396 -4.06231 
3354 2 0.228817 -1.64173 -4.61315 
3585 2 -0.000110287 -0.757785 -4.29414 
2020 1 0.0649489 -1.99352 -3.66584 
1296 1 1.01249 -0.101136 -4.45922 
202 1 1.39209 -1.41131 -4.41715 
984 1 0.877054 -1.5681 -3.72846 
971 1 2.88018 -1.5171 -4.0654 
169 1 2.11667 -1.9595 -4.23827 
1337 1 3.51747 -1.57684 -4.57889 
2084 1 3.87636 -0.63828 -4.48903 
3134 2 4.0726 -1.69255 -3.55232 
1299 1 5.45313 -1.70195 -3.37899 
1703 1 4.85976 -0.400635 -3.55874 
3116 2 6.12085 -1.6837 -4.31332 
319 1 -6.29799 -0.0747631 -3.2515 
385 1 -5.08608 -0.533729 -5.08872 
1627 1 -5.81131 0.708154 -3.30234 
2302 1 -4.18392 0.0327178 -3.91423 
1248 1 -3.53693 -0.250258 -3.14199 
827 1 -3.49626 0.762081 -4.31042 
2674 1 -3.32186 -0.167193 -4.25466 
2748 2 -2.16787 -0.416089 -3.59458 
2789 2 -2.7004 0.108015 -3.45967 
2241 1 -1.07129 -0.35894 -3.55059 
2108 1 -1.47576 0.330251 -3.65396 
3500 2 -0.128364 0.0715974 -4.2147 
3555 2 -0.496434 0.699849 -4.12544 
247 1 1.58798 -0.383724 -3.93304 
1531 1 1.21591 0.088088 -5.6387 
506 1 2.22081 0.703268 -3.49634 
2013 1 1.21931 0.529937 -3.72898 
2722 1 3.04985 -0.649657 -4.15375 
922 1 2.1012 -1.12014 -3.83736 
583 1 2.69859 0.420017 -4.15761 
840 1 4.35491 0.082317 -4.18001 
2914 2 3.79843 -1.08352 -3.32687 
1548 1 4.06328 0.938989 -3.92066 
2902 2 6.04112 -0.0451339 -3.91196 
2856 2 6.09209 -0.847846 -4.04031 
1575 1 6.88225 0.559326 -3.84875 
3263 2 -6.38985 0.736858 -4.21064 
3260 2 -6.6367 1.50899 -3.878 
654 1 -6.9027 0.670714 -3.12492 
2690 1 -5.74627 2.02146 -4.68745 
35 1 -5.56658 2.15313 -3.40422 
1913 1 -5.46193 1.43833 -3.92566 
2278 1 -4.66211 1.78922 -3.39539 
1343 1 -4.9322 0.776535 -3.86807 
1316 1 -3.76558 1.83586 -3.78424 
3490 2 -2.87747 0.91821 -3.50614 
882 1 -4.1416 0.978615 -3.77635 
969 1 -2.57016 1.06678 -4.5112 
2529 1 -3.26667 1.70855 -4.50611 
1971 1 -1.77997 0.516445 -4.41336 
3196 2 -0.438875 2.17828 -3.62237 
1775 1 -1.47329 1.46848 -4.48512 
2950 2 -0.611525 1.43081 -3.84726 
2406 1 1.02514 0.943389 -5.43472 
1700 1 1.44234 1.46131 -3.45674 
3241 2 1.59709 1.26315 -4.61988 
2 1 0.57463 0.853834 -4.43483 
3063 2 1.61271 2.06519 -4.52417 
613 1 2.24081 1.53216 -3.44816 
2707 1 3.84007 1.83834 -3.66898 
2327 1 5.16949 1.57034 -5.06675 
2584 1 4.77861 2.50779 -4.27291 
81 1 4.4405 1.69403 -2.43661 
1364 1 3.23044 1.04632 -4.35551 
2223 1 4.50788 1.11331 -3.05212 
2317 1 4.84408 1.5002 -4.25877 
2819 2 5.75585 0.832264 -3.56467 
3209 2 5.52801 1.5326 -3.48118 
817 1 6.65251 1.3432 -3.88619 
1200 1 6.60478 2.09317 -4.22027 
3033 2 -6.77343 2.32946 -3.83527 
2751 2 -6.76968 3.13824 -3.85622 
978 1 -4.8067 2.77994 -3.35668 
1862 1 -5.8953 3.10045 -3.1126 
2061 1 -5.72991 2.7756 -4.23158 
2436 1 -3.17008 3.46791 -3.95438 
1783 1 -3.14163 2.56885 -4.15265 
1761 1 -3.75152 2.79775 -3.64517 
1910 1 -2.44072 2.00655 -4.16531 
561 1 -1.06178 2.22343 -5.14288 
2030 1 -1.71627 2.77225 -2.85833 
2592 1 -1.93331 3.74284 -3.44816 
46 1 -1.38109 2.63618 -4.41707 
2860 2 -0.76581 2.83482 -3.50315 
2442 1 0.394268 2.76695 -3.89452 
2328 1 0.438284 1.71514 -4.21033 
3479 2 1.3772 2.78219 -4.17387 
970 1 2.80333 2.10034 -4.87084 
1614 1 2.53815 3.06905 -4.40263 
130 1 1.87891 2.24767 -3.19593 
254 1 2.83157 2.37753 -4.00816 
946 1 3.55479 2.66155 -3.63056 
556 1 4.58116 1.88755 -3.4277 
1939 1 5.58447 3.2969 -4.2984 