ITEM: TIMESTEP
2100
ITEM: NUMBER OF ATOMS
3594
ITEM: BOX BOUNDS pp pp pp
-7.2068237847627090e+00 7.2068237847627090e+00
-7.2068237847627090e+00 7.2068237847627090e+00
-7.2068237847627090e+00 7.2068237847627090e+00
ITEM: ATOMS id type x y z 
2727 1 -6.89191 -6.82837 -6.32253 
2984 2 -6.38961 -6.50917 7.09717 
196 1 -5.25104 -6.94885 -6.9665 
1140 1 -5.7575 -6.50987 -6.43713 
1654 1 -5.12211 -5.91308 -6.8021 
358 1 -4.45091 -6.87202 -6.87641 
1004 1 -3.78946 7.02997 -6.79541 
2114 1 -3.91866 -6.15356 -6.57054 
2200 1 -3.67578 -6.71701 -6.05876 
3268 2 -2.57695 -5.99039 -6.07865 
3454 2 -2.58976 -6.8339 -6.43324 
1107 1 -1.56866 -5.89604 -6.59576 
1905 1 -1.35964 -6.68025 -5.98397 
2619 1 -1.4623 -6.73082 -6.7643 
3537 2 -0.28879 -6.33707 -6.839 
2564 1 0.164427 -7.08395 -5.98249 
3259 2 -0.422128 -7.08978 7.21383 
2491 1 0.223332 -5.91427 -6.00568 
2113 1 1.74202 -6.31367 -6.48717 
2265 1 0.739801 -6.51637 -6.48239 
1100 1 2.54088 -6.72741 -6.63611 
295 1 2.48249 -6.70681 -5.67511 
3587 2 3.60436 -7.00558 -6.23381 
1538 1 4.4786 -6.3783 -6.8492 
3442 2 3.37581 -6.1857 -5.95651 
3208 2 5.82622 -6.38147 -6.61025 
1772 1 6.87291 -6.18617 -6.21204 
3495 2 -6.95589 -5.07989 -6.932 
558 1 -6.91466 -5.83564 -5.99611 
3366 2 -6.56462 -5.7588 -7.0777 
1406 1 -5.93147 -5.22518 -6.19149 
2641 1 -5.09185 -5.06167 -6.46617 
477 1 -4.3529 -5.4995 -6.44842 
1280 1 -3.68146 -5.12095 -6.87403 
2944 2 -2.86105 -5.17264 -5.86472 
909 1 -2.97703 -4.93619 7.16013 
1246 1 -2.3941 -5.6388 -7.06459 
20 1 -1.5352 -5.88383 -5.65202 
3019 2 -0.683076 -4.72427 -6.64979 
1702 1 -1.85424 -5.14631 -6.37871 
386 1 -2.04321 -4.84953 7.19878 
3368 2 -0.46849 -5.5686 -6.78139 
2321 1 0.443681 -5.1638 -7.03222 
40 1 0.860629 -5.82033 -6.83289 
480 1 0.642078 -4.79571 -6.25842 
891 1 1.42741 -5.47879 -6.26873 
3145 2 1.5035 -4.6352 7.13039 
799 1 2.4299 -5.8235 -6.47498 
2178 1 2.57748 -5.16396 -7.02874 
1313 1 2.27098 -5.17705 -5.99674 
2051 1 3.96635 -5.7082 -7.18593 
440 1 4.22284 -5.61772 -6.46888 
1373 1 4.23946 -4.73264 -6.10717 
2062 1 3.5303 -5.07199 -6.78341 
2812 2 5.38609 -5.68195 -6.40044 
3212 2 5.34406 -4.89098 -6.12597 
284 1 6.39155 -4.843 -6.73959 
2686 1 7.05979 -5.10164 -5.95359 
66 1 6.51199 -5.62954 -6.70516 
1282 1 -6.01038 -4.17627 -6.22326 
3029 2 -6.82228 -4.38438 -6.79176 
2975 2 -7.11158 -3.66418 -6.89841 
601 1 -6.00582 -3.22075 -6.4365 
1496 1 -5.77981 -3.65112 -7.03064 
2042 1 -5.28259 -4.07586 -6.53813 
582 1 -4.49553 -3.43565 -6.26761 
452 1 -5.75276 -4.49822 7.24833 
1918 1 -4.41742 -4.41067 -6.31877 
1465 1 -3.9027 -3.51058 -6.91971 
2981 2 -3.17085 -3.67244 -5.88937 
911 1 -2.19771 -3.14364 -6.44507 
2077 1 -3.14523 -3.35124 -6.98795 
3574 2 -3.20064 -4.48374 -6.16107 
2627 1 -2.52156 -3.99958 -7.1586 
2139 1 -2.01635 -4.27716 -6.35145 
3484 2 -0.940785 -4.05636 -6.50788 
2298 1 0.2996 -4.15334 -6.71128 
1122 1 -0.0704355 -3.35184 -7.05569 
1425 1 0.34424 -3.15597 -6.11214 
139 1 0.920809 -3.8776 -5.79666 
3158 2 1.41716 -3.86286 -7.02969 
2492 1 1.74211 -3.72487 -5.92331 
502 1 2.21269 -4.37155 -6.40157 
1976 1 2.92625 -3.48084 -6.78662 
19 1 2.98239 -4.3199 -6.87294 
1215 1 4.64772 -4.12585 -7.10206 
1471 1 3.8386 -4.37293 -6.75987 
2483 1 3.78292 -3.52419 -6.72667 
3266 2 5.18861 -4.22162 -6.14817 
2767 2 5.15039 -3.50203 -6.26106 
645 1 5.63524 -3.52176 7.18687 
2068 1 6.34313 -4.00825 -6.57919 
802 1 -7.20398 -4.23478 -5.82906 
3126 2 7.20425 -2.7933 -6.70639 
2664 1 -6.00873 -2.39912 -6.74353 
2706 1 -5.32504 -1.90301 -6.16109 
2699 1 -5.29982 -2.93437 -6.43949 
56 1 -4.57228 -2.35148 -5.83725 
1986 1 -4.35038 -2.53417 -6.60347 
493 1 -3.32137 -2.42429 -6.8866 
2549 1 -2.4985 -2.09696 -6.19972 
1445 1 -2.33578 -2.53127 -7.07099 
2808 2 -1.12858 -3.28536 -6.48851 
3332 2 -1.30066 -2.43749 -6.41151 
2024 1 -0.169796 -2.46047 -6.57441 
3503 2 1.0343 -3.15467 -7.10355 
3347 2 0.902516 -2.30558 -7.04429 
1738 1 1.38624 -2.03866 -6.03552 
2599 1 2.11765 -3.19396 -6.43877 
644 1 2.04955 -2.30922 -6.62536 
2407 1 2.92705 -2.71171 -6.50918 
85 1 3.98177 -2.50171 -6.64084 
3550 2 4.83435 -2.76985 -6.14242 
453 1 4.60152 -2.14008 7.11456 
366 1 5.94382 -2.32305 -6.64195 
1806 1 6.22276 -3.25005 -6.41278 
1301 1 -6.40715 -1.69906 7.16553 
2578 1 -6.10631 -1.39053 -6.11166 
1138 1 -6.50518 -0.934387 -6.81426 
1514 1 -6.45401 -2.08064 -6.09704 
1835 1 -4.8728 -1.36284 -5.59025 
3097 2 -5.28768 -1.51229 -7.18482 
3127 2 -5.50627 -0.692098 -6.95019 
857 1 -4.59301 -0.903771 -6.25663 
499 1 -4.42138 -1.71103 -6.35122 
12 1 -4.10212 -0.804175 -6.79859 
1669 1 -3.54586 -1.50659 -6.73597 
2490 1 -2.66274 -1.44761 -6.57381 
1094 1 -2.00516 -1.76918 7.11091 
1815 1 -2.7322 -0.996101 -5.91072 
2449 1 -2.28358 -0.899046 7.17389 
3234 2 -1.47594 -1.52059 -6.30937 
1106 1 -0.358347 -1.7396 -6.481 
428 1 -0.685501 -0.891083 -6.90304 
3151 2 0.493687 -0.693322 -6.59303 
2804 2 0.706181 -1.51281 -6.67781 
72 1 2.84266 -1.78056 -6.35393 
2105 1 1.94333 -1.36081 -6.28243 
2220 1 3.94322 -1.54655 -6.75554 
2972 2 4.78534 -2.02379 -6.02521 
925 1 3.24621 -1.03279 -6.04123 
1466 1 5.73404 -1.43386 -6.47912 
1168 1 5.22486 -1.53849 -7.06189 
3087 2 6.92908 -1.99456 -6.53075 
2840 2 6.81111 -1.15778 -6.7119 
720 1 -6.42368 -0.165436 -5.99525 
2423 1 -7.05809 0.00898211 -6.70815 
3007 2 -5.74648 0.0492876 -6.82862 
218 1 -4.71164 0.609683 -6.77679 
1933 1 -3.36977 -0.628342 -6.44436 
1264 1 -3.68024 0.12006 -6.19428 
1474 1 -4.39466 -0.117242 -6.45343 
1353 1 -2.9269 0.557955 -6.32598 
1315 1 -2.6187 -0.407232 -6.68013 
2480 1 -1.60703 -0.33445 -7.21644 
2591 1 -1.01567 0.270729 -6.72185 
3088 2 0.22787 0.0273126 -6.41109 
1380 1 -0.780095 -0.273406 -6.14011 
769 1 1.38904 0.022492 -6.6486 
2500 1 1.66241 -0.795654 -6.81249 
693 1 1.03294 0.775498 -6.88393 
2605 1 1.62301 -0.410227 -5.95224 
859 1 2.94053 -0.0910417 -5.92084 
3195 2 2.59143 -0.271068 -7.14754 
2960 2 2.45671 0.507499 -6.94689 
1241 1 2.54201 -0.790559 -6.08789 
2535 1 3.80406 -0.587452 -6.48974 
2380 1 4.0911 0.522771 -6.45451 
588 1 3.42116 0.190612 -6.63958 
2183 1 4.77678 -0.255945 -6.69125 
1895 1 5.68515 -0.582273 -6.94691 
2223 1 5.43408 -0.474976 -6.11512 
873 1 5.68451 0.578195 -6.97207 
2797 2 6.53533 -0.523763 -6.26928 
3135 2 6.31844 0.21162 -5.96938 
2711 1 -7.01231 0.538463 -6.14055 
3465 2 -6.0967 1.51974 -6.31552 
2637 1 -6.81147 0.715374 -7.06235 
3140 2 -5.78012 0.803629 -6.58901 
1056 1 -4.96237 1.89279 -6.3329 
1410 1 -4.94194 1.52675 -7.04197 
877 1 -4.87877 0.911622 -5.92982 
2677 1 -4.12051 0.986134 -6.00356 
3148 2 -3.94609 1.33283 -7.10747 
755 1 -2.90962 1.50918 -6.3839 
2289 1 -1.80593 0.617379 -6.67795 
2452 1 -2.07206 1.82092 -6.62687 
1993 1 -1.17667 1.12907 -6.44928 
1057 1 -1.026 0.598479 -5.82739 
3311 2 0.110754 0.752787 -6.2828 
2928 2 -0.0181103 1.44998 -6.03398 
2558 1 1.37554 1.37819 -6.33124 
175 1 1.42087 0.626878 -5.88726 
1219 1 0.631292 1.71506 -7.11593 
1501 1 3.08852 0.747117 -5.85124 
3459 2 2.36205 1.34717 -6.87614 
3393 2 2.30914 2.12207 -6.5388 
1286 1 3.51571 1.1954 -6.35252 
1625 1 4.38236 1.39957 -6.23 
9 1 3.34825 1.02407 -7.14837 
2352 1 5.33061 1.23851 -6.4463 
2631 1 4.95059 0.405809 -6.40414 
1331 1 6.71302 0.984673 -6.78291 
577 1 -7.13353 1.69301 -6.78257 
1939 1 6.06809 1.34621 7.22249 
2736 2 -6.07165 2.31526 -6.33732 
1396 1 -6.95308 2.65688 -6.98402 
1169 1 -7.11339 2.27283 -5.90289 
3238 2 -6.03431 3.10045 -6.23695 
488 1 -5.13203 2.54386 -6.86474 
789 1 -4.57714 2.55301 -6.12481 
3093 2 -3.60125 2.04269 -7.00077 
2783 2 -3.91884 2.73385 -6.87841 
1523 1 -2.42403 2.37186 7.06109 
2320 1 -2.51917 3.08866 -6.70331 
337 1 -2.95433 2.35293 -6.26643 
1356 1 -3.09483 3.14863 -6.21902 
1230 1 -1.87018 2.54928 -6.35749 
1817 1 -1.08706 2.58576 -6.42099 
532 1 -0.83405 1.86415 -6.59992 
323 1 0.386203 3.1672 -6.82191 
3078 2 0.202255 2.2549 -6.0329 
2208 1 -0.560281 3.09019 -7.04821 
3444 2 -0.327857 2.84209 -5.86357 
883 1 -0.134763 2.38136 7.13782 
1834 1 1.21176 2.17325 -6.3067 
171 1 1.01644 3.14051 -6.28558 
3417 2 2.22411 2.76151 -6.28661 
1505 1 3.76094 2.07169 -6.05763 
241 1 3.45873 1.86696 -6.92789 
1503 1 3.43616 2.7781 -6.71986 
3373 2 4.35222 2.57461 7.17493 
1176 1 5.31149 2.77813 -6.30612 
1027 1 4.98863 2.09135 -5.85483 
2092 1 5.70322 2.11874 -6.77165 
2116 1 5.74019 2.9209 -6.94308 
2305 1 6.52107 2.03787 -6.81167 
889 1 6.85142 2.80045 -6.5154 
2357 1 -6.32834 4.64451 -6.96463 
2063 1 7.19065 4.34662 -6.8536 
2191 1 -6.98845 3.52524 -6.90691 
243 1 -5.46125 3.18538 7.16303 
402 1 -5.42537 4.09989 -6.75038 
2436 1 -4.97336 3.36459 -6.35218 
3408 2 -4.02928 3.44855 -6.81518 
3411 2 -4.30187 4.26199 -6.60755 
2304 1 -2.75644 3.97172 -6.3738 
870 1 -3.31764 4.51085 -6.88104 
2626 1 -2.15869 4.20847 -5.94748 
2505 1 -1.84798 3.37928 -6.12859 
1224 1 -1.17027 3.54712 -6.65112 
2322 1 -1.27362 4.16241 -5.98235 
894 1 -0.188955 4.11539 -6.80882 
1644 1 0.641126 3.95921 -6.65873 
3466 2 1.77668 4.29655 -6.32375 
3478 2 2.13339 3.53381 -6.24469 
1689 1 3.19584 4.06688 -6.56636 
2765 2 4.43492 3.22493 -7.03382 
103 1 2.87055 3.39299 -7.18935 
3215 2 4.12343 3.90532 -6.99368 
785 1 3.46016 3.38642 -5.97894 
1066 1 3.63353 4.66542 -5.62861 
81 1 4.93205 3.44539 -5.86986 
1417 1 5.35384 3.7786 -6.84201 
1148 1 6.86661 3.99857 -6.19438 
2025 1 6.24333 3.44375 -6.50451 
1697 1 5.92828 4.26437 -6.35628 
1879 1 -6.54462 5.54047 -6.77676 
2376 1 -5.57656 4.80187 -6.19547 
1718 1 -5.76053 5.55421 -6.46502 
3463 2 -4.61211 5.68416 -6.11137 
762 1 -5.26563 4.95296 -7.1437 
3471 2 -4.52956 4.97733 -6.25139 
989 1 -3.5305 5.92406 -6.46053 
1894 1 -3.10096 4.84459 -6.1188 
943 1 -3.48676 5.25554 -7.20654 
3306 2 -2.1793 5.25544 -6.89882 
849 1 -1.39655 5.07424 -6.0878 
1308 1 -1.02254 4.43844 -6.86179 
1394 1 -1.21341 5.65361 -6.94439 
867 1 0.42078 4.79062 -6.33625 
1567 1 -0.421342 5.25167 -6.45929 
30 1 0.280606 5.66661 -6.04076 
3138 2 1.514 5.13054 -5.92563 
563 1 0.935029 5.10467 -7.00753 
641 1 0.756005 5.9672 -6.81715 
371 1 2.69494 5.07659 -6.75901 
23 1 1.75514 5.68481 -7.13619 
1997 1 2.74244 4.941 -5.97774 
3551 2 3.99586 4.66913 -6.5699 
3223 2 3.82488 5.39324 -6.70186 
865 1 4.69194 5.57062 -5.92783 
1390 1 6.00009 5.41212 -5.98026 
1865 1 4.93917 4.45613 -6.14664 
2594 1 4.8385 5.86282 -6.92286 
1263 1 5.37113 5.07957 -6.30432 
1656 1 7.0267 5.24414 -6.52898 
2905 2 5.91824 5.699 7.18175 
1959 1 6.50761 4.74012 -6.02565 
1060 1 -6.12208 -7.22013 -6.2173 
2662 1 -6.29104 6.33425 -6.51949 
1599 1 -7.13701 6.56507 -6.57159 
594 1 -5.27568 5.87975 -7.05532 
3150 2 -4.54483 6.47964 -6.03697 
2396 1 -5.51954 6.62999 -6.46855 
2275 1 -3.35036 6.72288 -6.02664 
360 1 -3.92963 6.25275 -7.11345 
2832 2 -2.27271 6.84033 -6.55079 
2839 2 -2.36102 6.07045 -6.7685 
2240 1 -1.23545 6.70127 -6.79446 
197 1 -1.19175 6.0109 -6.09184 
2494 1 0.472735 6.73913 -6.56925 
512 1 -0.790658 6.86116 -6.07121 
2038 1 -0.305812 6.2415 -6.39703 
2965 2 -0.293864 6.58314 6.95602 
2462 1 1.53542 6.51702 -6.84371 
2600 1 1.41741 -7.0958 -6.54923 
2172 1 2.30718 6.78929 -6.59596 
725 1 2.66711 6.22711 7.05466 
1019 1 2.28815 5.94023 -6.46597 
1333 1 2.7311 7.17177 7.13293 
2790 2 3.44029 6.03548 -6.61888 
3569 2 3.56947 6.74955 -6.55436 
2787 2 5.86172 -7.07893 -6.98524 
115 1 4.82958 6.69983 -6.61261 
1927 1 5.43444 6.05732 -6.12358 
2136 1 4.72768 -6.99091 -6.15806 
3539 2 5.84884 6.48083 -7.10779 
686 1 6.6743 7.17009 -6.17097 
585 1 5.93712 6.70454 -5.88937 
1871 1 6.59323 6.0099 -6.332 
1490 1 6.9597 -7.21572 -7.01272 
2521 1 -6.1453 -6.04295 -5.77897 
2828 2 -6.94592 -6.73219 -5.124 
803 1 -6.03231 -6.83424 -5.36012 
3477 2 -4.73541 -7.09693 -5.84031 
1733 1 -5.39347 -6.91363 -4.72616 
3520 2 -5.00565 -6.31951 -5.69962 
2466 1 -4.63038 7.02651 -4.80217 
1232 1 -3.70995 -7.19878 -5.37039 
995 1 -2.03771 -6.84205 -5.48113 
897 1 -3.10226 -6.52954 -5.14219 
1470 1 -2.14496 -5.90024 -5.0394 
1088 1 -0.524007 -6.6507 -5.90041 
3018 2 -0.970408 -6.95422 -4.86554 
3594 2 -1.07949 -5.9341 -4.6215 
687 1 0.0322301 -6.32831 -5.06659 
204 1 0.129121 -7.19699 -5.12317 
2978 2 1.30213 -6.73453 -5.51547 
3128 2 1.07544 -6.0172 -5.2828 
579 1 1.95001 -6.61043 -4.49715 
1175 1 2.8291 -6.41894 -4.89158 
2145 1 2.07639 7.07197 -4.91327 
2479 1 4.5465 -6.20371 -5.6927 
795 1 3.87614 -6.50456 -4.99047 
451 1 4.35064 7.21194 -5.35577 
10 1 5.49157 -7.09109 -5.8568 
1616 1 5.38318 -6.30123 -5.4022 
1526 1 6.08249 -6.31334 -4.72162 
1318 1 6.35828 -6.80231 -5.52604 
3010 2 -7.12396 -5.98419 -4.8928 
2269 1 -6.29274 -5.42747 -5.1093 
1788 1 -6.64936 -4.69763 -5.49216 
3416 2 -5.09596 -5.72498 -5.31516 
2912 2 -5.287 -4.88136 -5.2506 
1671 1 -3.80028 -5.94643 -5.62678 
2612 1 -3.99974 -5.55723 -4.80361 
1784 1 -4.1522 -4.97293 -5.66382 
2388 1 -3.82479 -4.75038 -4.92323 
26 1 -1.99687 -5.1658 -5.25433 
2248 1 -3.02511 -5.40597 -4.71197 
448 1 -1.21884 -5.09143 -5.68426 
1652 1 -0.53459 -5.76531 -5.59558 
527 1 -0.454303 -4.76375 -5.16653 
1210 1 -0.0385534 -5.12966 -5.86578 
2826 2 0.925911 -5.12504 -5.1695 
1810 1 2.00027 -4.82944 -5.20021 
2315 1 2.31731 -5.63897 -4.80276 
1160 1 2.11115 -5.81708 -5.56073 
2957 2 3.2896 -5.39659 -5.80549 
2370 1 3.87483 -5.5654 -4.93225 
2712 1 3.21635 -5.86426 -4.5167 
274 1 4.48473 -5.21372 -5.41517 
1320 1 5.0609 -4.67587 -5.01174 
329 1 5.75504 -5.26182 -5.0731 
1830 1 6.34193 -5.64748 -5.62446 
3080 2 6.92859 -5.2251 -4.75077 
1954 1 -6.42992 -3.96411 -5.08828 
639 1 -6.47365 -3.5542 -5.84463 
3325 2 -5.38824 -4.03791 -5.2819 
2737 2 -5.36823 -3.28626 -5.54817 
1001 1 -4.1996 -3.78018 -5.61926 
172 1 -3.42385 -4.0821 -4.92874 
1627 1 -4.42364 -3.90462 -4.8041 
1979 1 -2.53331 -4.34165 -5.09958 
1643 1 -1.97585 -3.47332 -5.5807 
104 1 -2.49725 -3.53993 -4.97154 
1235 1 -1.71553 -4.2883 -5.57187 
842 1 -0.910917 -4.05545 -5.38999 
3068 2 0.706662 -4.4454 -4.7856 
15 1 0.0409701 -4.16538 -5.77945 
2768 2 0.520768 -3.65748 -4.77678 
851 1 -0.524683 -3.63034 -4.67683 
1966 1 1.58076 -4.77653 -5.94421 
2048 1 1.60091 -4.08445 -5.14587 
2933 2 3.03615 -4.6407 -5.54336 
3249 2 3.07597 -3.8642 -5.79659 
3014 2 2.56203 -3.75236 -5.27225 
2306 1 4.16181 -3.87647 -5.92746 
628 1 4.14927 -4.33151 -5.28199 
1075 1 4.10254 -3.27144 -5.23312 
1653 1 3.54147 -3.70982 -4.76621 
2348 1 4.9198 -3.5797 -5.11518 
2530 1 5.77342 -4.23952 -4.93977 
377 1 6.20423 -3.54222 -5.45312 
659 1 6.42307 -4.55369 -5.81495 
3173 2 6.98137 -4.48714 -4.60099 
346 1 7.12446 -3.31845 -5.74628 
2130 1 -6.48189 -2.8244 -5.73698 
1493 1 -6.36352 -3.16439 -4.97738 
2023 1 -6.92726 -2.22171 -5.08425 
2974 2 -5.82486 -2.08668 -5.0992 
1087 1 -4.56257 -2.04582 -5.1076 
2890 2 -5.45414 -2.59999 -5.38622 
3041 2 -3.57825 -1.73511 -5.67818 
3061 2 -3.29269 -2.78854 -5.91604 
2674 1 -4.157 -2.95287 -5.32415 
1542 1 -4.72951 -3.04328 -4.50949 
401 1 -3.36913 -3.08791 -4.80888 
1428 1 -3.95767 -2.38031 -4.72583 
1864 1 -2.23776 -2.71676 -5.53045 
1433 1 -2.63835 -2.64855 -4.89991 
1840 1 -1.33316 -3.29721 -5.18129 
1984 1 -1.39531 -2.38197 -5.2722 
128 1 -0.720745 -2.79607 -4.65572 
685 1 -0.418367 -3.13878 -5.62763 
484 1 -0.540278 -2.11524 -5.53025 
3227 2 0.430257 -2.78969 -4.69813 
886 1 0.377313 -2.46087 -5.83334 
2697 1 1.28265 -2.84861 -5.9555 
84 1 1.33332 -2.16478 -5.12762 
250 1 1.49406 -3.11856 -5.12712 
2830 2 2.49506 -3.0293 -5.46957 
3356 2 2.50358 -2.16398 -5.38946 
1770 1 3.65459 -2.9845 -5.93057 
538 1 3.5928 -2.0516 -5.899 
1472 1 4.05116 -2.21087 -5.12428 
593 1 3.3923 -2.829 -4.92309 
840 1 4.86147 -2.73529 -4.7836 
483 1 5.98275 -2.31915 -5.84767 
190 1 5.65977 -3.00954 -5.1457 
1548 1 5.30563 -2.19862 -5.26642 
1385 1 6.76257 -2.59332 -5.71872 
2993 2 -6.2214 -1.31468 -4.89526 
806 1 -6.82266 -0.77427 -5.9266 
1872 1 7.16256 -1.64781 -5.50846 
2296 1 -5.08075 -1.13638 -4.83082 
1833 1 -5.38001 -0.689434 -5.71679 
1446 1 -5.30379 -0.262564 -4.73522 
2869 2 -3.74348 -0.970376 -5.45515 
2844 2 -4.19683 -0.663286 -5.04322 
1611 1 -2.9628 -1.65837 -4.58908 
1890 1 -2.66913 -1.06024 -5.12057 
2601 1 -2.23075 -1.7213 -5.351 
3105 2 -1.67889 -0.772419 -6.05633 
1484 1 -1.1924 -1.48552 -5.0815 
2030 1 -1.81648 -0.77446 -4.94893 
1953 1 -0.311382 -1.25969 -5.67145 
3430 2 0.18779 -2.05602 -4.63893 
2368 1 0.392733 -1.68845 -5.67759 
1940 1 1.2923 -1.20988 -5.81104 
2182 1 1.10032 -1.26046 -5.00777 
3557 2 2.36592 -1.33935 -5.1238 
3449 2 2.11404 -0.570966 -4.92119 
2995 2 4.66788 -1.28691 -5.82201 
1695 1 3.55546 -1.24314 -5.21631 
2150 1 3.36237 -0.331605 -5.11901 
388 1 4.50069 -1.46189 -4.68815 
153 1 5.7981 -1.20673 -5.68582 
2211 1 5.25401 -1.14331 -4.9746 
1145 1 6.35441 -1.62872 -5.53492 
960 1 6.78653 -0.824029 -5.14214 
1335 1 -7.10159 -0.0100876 -5.32347 
3267 2 -6.39173 -0.582004 -4.6872 
1369 1 -5.83535 0.15424 -5.64449 
2523 1 -5.20443 0.463765 -5.0306 
882 1 -4.84203 0.0961539 -5.81195 
3543 2 -3.92043 -0.0379079 -5.18587 
1581 1 -2.9217 -0.0339951 -5.5695 
1257 1 -2.14084 -0.0618994 -4.81906 
3200 2 -1.95483 0.030286 -5.88386 
871 1 -1.31609 0.074165 -4.8098 
855 1 -0.910954 -0.765671 -5.21285 
2395 1 -0.608721 0.120492 -5.30445 
75 1 0.0790091 -0.458006 -5.50595 
42 1 0.0448118 0.546245 -5.1619 
2037 1 0.842207 -0.0637929 -4.66007 
2231 1 0.841996 -0.550876 -5.40784 
549 1 0.938322 0.432853 -5.24788 
2336 1 2.1737 0.412044 -5.94331 
3383 2 1.99484 0.246343 -4.76915 
1185 1 2.99889 0.587523 -4.98655 
3317 2 4.45906 -0.55769 -5.51682 
2848 2 4.29036 0.182497 -5.4376 
34 1 5.34393 0.433099 -5.51358 
1364 1 5.18788 -0.277497 -4.81388 
941 1 5.92513 -0.451603 -5.19218 
1402 1 5.97528 0.285149 -4.7727 
817 1 6.69486 0.0449801 -4.77558 
1200 1 -6.56191 0.870593 -5.52231 
2560 1 -7.08424 1.38389 -6.05645 
2278 1 -6.27851 1.80512 -5.21368 
698 1 7.18919 0.940204 -4.99993 
1551 1 -5.58459 1.13553 -5.33447 
111 1 -5.46717 1.73486 -4.74693 
1265 1 -3.30629 1.21605 -5.82097 
408 1 -4.18922 1.83643 -6.03366 
3256 2 -4.14852 0.690738 -5.07013 
3144 2 -4.29457 1.38556 -4.87067 
1790 1 -2.99074 0.785629 -5.09983 
2939 2 -2.04081 1.55849 -5.59974 
24 1 -3.09407 1.57386 -4.93598 
2796 2 -2.04123 0.778173 -5.59562 
395 1 -0.954721 1.6444 -5.75937 
28 1 -1.00374 0.887453 -5.01493 
2708 1 -0.150026 1.40847 -4.97764 
1374 1 0.553853 1.00869 -4.6494 
741 1 1.02716 1.56941 -5.39329 
3443 2 1.79247 1.02724 -4.64983 
178 1 3.00241 1.68774 -5.9024 
2276 1 2.0535 1.30779 -5.72081 
556 1 2.8842 1.4671 -5.10756 
3364 2 4.09029 0.883958 -5.2033 
3388 2 4.04996 1.7098 -5.00954 
234 1 5.05953 1.3313 -5.6411 
1888 1 5.77096 1.02646 -4.77178 
3038 2 6.32644 1.10897 -5.78152 
3060 2 6.21839 1.85405 -5.83838 
2297 1 6.86498 1.71264 -4.91837 
1584 1 -5.67147 2.56606 -5.20859 
13 1 -6.91435 2.42202 -5.19673 
1343 1 -5.2263 1.91723 -5.50041 
732 1 -5.08584 3.11756 -5.58393 
896 1 -5.67858 2.96584 -4.3361 
1991 1 -4.00213 2.82457 -5.69927 
902 1 -3.46373 2.11534 -5.62242 
2861 2 -4.26027 2.05098 -4.76556 
1454 1 -3.53783 3.53481 -4.85096 
246 1 -3.34863 2.69315 -4.8201 
2846 2 -2.32388 2.30183 -5.43868 
3117 2 -2.40956 3.15754 -5.30434 
1932 1 -1.29683 2.60458 -5.49923 
46 1 -0.764278 2.00599 -4.94062 
1768 1 0.262063 2.30596 -4.62784 
2442 1 0.343397 3.19181 -4.97573 
561 1 -0.404025 2.94049 -4.72231 
2647 1 0.882578 2.64557 -5.35069 
1614 1 1.20832 3.42872 -5.33697 
613 1 3.12611 2.65558 -5.80175 
2707 1 1.80157 2.28832 -5.48735 
2271 1 2.57884 3.20641 -5.08997 
850 1 2.65867 2.3161 -4.85205 
3433 2 3.8131 2.74986 -4.95039 
908 1 4.27662 2.79637 -5.97208 
1515 1 4.97646 2.78127 -5.14163 
140 1 5.42914 1.96314 -4.99175 
3414 2 6.1312 2.65912 -5.68244 
3298 2 5.90851 3.2617 -5.34146 
131 1 -7.17003 3.20812 -5.7968 
3045 2 -6.29882 3.83081 -5.99239 
822 1 -6.42164 3.13281 -4.99351 
1760 1 7.13186 3.6193 -4.97659 
491 1 -6.76453 4.16288 -4.63617 
92 1 -5.8352 3.70636 -4.96618 
2690 1 -5.21489 4.05248 -5.58786 
2495 1 -4.68335 4.78711 -5.24165 
1630 1 -4.02239 4.24501 -5.09817 
59 1 -4.34623 3.63975 -5.6557 
1499 1 -3.46412 3.99818 -5.8611 
2945 2 -2.51935 4.01575 -5.02556 
474 1 -1.3113 3.52885 -5.40003 
353 1 -1.75188 4.79034 -5.32101 
2563 1 -1.28539 4.19376 -4.93186 
2813 2 -0.266566 3.57034 -5.83753 
2 1 0.40179 3.98378 -4.80798 
3378 2 -0.423693 4.39582 -5.65597 
441 1 1.52811 4.43785 -4.88313 
2630 1 0.767294 3.87158 -5.81713 
1709 1 2.39788 4.66618 -5.08601 
268 1 2.92682 4.0311 -5.7772 
1375 1 1.93765 3.63155 -4.99941 
2894 2 3.56907 3.56301 -4.77786 
565 1 4.1304 3.77112 -5.74091 
3013 2 3.44642 4.32981 -4.75968 
2917 2 5.94133 4.08309 -5.21861 
790 1 4.79969 3.79828 -5.09113 
2010 1 6.95552 4.30805 -5.32178 
3147 2 -6.54234 4.58728 -5.78287 
3330 2 -6.66379 5.41637 -5.5288 
507 1 -6.00502 5.71855 -4.6683 
2574 1 -5.75942 5.98161 -5.76006 
297 1 -5.55835 4.80463 -5.25806 
691 1 -5.24498 5.59194 -5.14759 
285 1 -3.62433 4.86506 -5.49577 
2469 1 -4.38973 5.64978 -4.85886 
1030 1 -3.63329 5.66295 -5.48361 
2977 2 -2.88828 4.70621 -4.83127 
3458 2 -3.02827 5.49688 -4.69881 
1623 1 -2.6559 5.34841 -5.86011 
2018 1 -1.94273 5.59586 -5.36066 
1881 1 -1.74531 5.40528 -4.56145 
3392 2 -0.436689 5.10213 -5.32479 
597 1 0.0733257 4.81153 -4.45074 
1713 1 0.673077 4.74421 -5.30476 
482 1 1.72276 5.35693 -4.69057 
2714 1 0.603254 5.4853 -5.10196 
862 1 2.3641 5.5446 -5.41359 
2703 1 4.48643 4.75416 -5.28014 
1422 1 3.51447 5.56288 -5.59989 
496 1 4.32083 5.54901 -4.83999 
2927 2 5.58976 4.71495 -4.95411 
3257 2 5.47415 5.47298 -4.87701 
2377 1 6.64885 5.44846 -5.36469 
610 1 -6.05978 6.6625 -4.58072 
3487 2 -7.05659 6.87706 -5.30331 
2747 2 -6.73296 6.19835 -5.52412 
1255 1 -5.66752 6.84919 -5.48498 
833 1 -5.21899 6.31114 -4.95562 
2573 1 -4.19849 6.3975 -4.29951 
1598 1 -3.9983 6.37586 -5.1544 
658 1 -2.8212 7.07029 -5.41903 
977 1 -2.7773 6.18929 -5.68536 
1725 1 -2.13777 6.42715 -5.16797 
1227 1 -1.66729 6.77165 -5.82478 
3455 2 -0.819301 6.70983 -5.05665 
3207 2 -0.706558 5.83468 -5.1457 
2429 1 0.385521 6.41004 -5.60132 
2899 2 1.33128 6.82837 -5.67809 
2831 2 1.38683 6.00138 -5.91362 
245 1 1.10491 5.94717 -4.69127 
614 1 2.83005 6.13789 -5.74882 
1799 1 2.05429 6.16078 -4.69232 
1051 1 2.44149 6.89373 -5.55308 
1358 1 3.31755 7.08357 -5.1154 
665 1 3.73934 6.38228 -5.36821 
1778 1 4.46288 6.34236 -5.90185 
2566 1 4.2697 6.22569 -4.30691 
2971 2 5.25957 6.30266 -5.06229 
2926 2 5.21863 7.01775 -4.65693 
929 1 6.36736 6.17195 -5.38537 
462 1 6.31254 7.03034 -4.79857 
2029 1 -6.31705 -6.94842 -4.18469 
1312 1 -6.0166 -6.02385 -4.53344 
2162 1 -6.81812 -6.51787 -3.58264 
1994 1 -4.89255 -6.36856 -4.1919 
3469 2 -5.56436 -6.2428 -3.3044 
2332 1 -4.10769 -6.4512 -4.73951 
361 1 -4.46457 -6.12936 -3.3534 
1344 1 -1.9341 -6.45072 -4.30933 
3265 2 -3.2335 -6.49522 -4.0605 
2326 1 -1.37165 -7.12102 -3.97701 
1677 1 -1.01668 -6.30405 -3.55445 
1945 1 -0.20177 -6.04327 -3.9363 
945 1 -0.0355342 -6.96895 -4.07379 
229 1 0.866092 -6.7472 -4.40644 
2028 1 1.62441 -6.94393 -3.80188 
1196 1 1.22359 6.73034 -4.48995 
1629 1 1.51367 -5.9656 -4.10963 
3303 2 2.76626 -6.40107 -3.73578 
3497 2 2.82556 -7.11364 -3.96002 
224 1 3.84273 -6.35984 -4.1368 
1384 1 4.28231 -7.10194 -3.58757 
2193 1 4.45635 -6.15503 -3.29511 
3290 2 5.00821 -6.65663 -4.52924 
317 1 5.05571 -6.70515 -3.38984 
2695 1 5.85502 -6.41883 -3.70301 
2464 1 6.08351 7.11923 -3.93773 
1667 1 6.92934 -6.66732 -4.11888 
1481 1 -6.35896 -4.87103 -4.36536 
1013 1 -6.6841 -5.7638 -3.92278 
1144 1 -5.45917 -5.45391 -4.28621 
2496 1 -4.8756 -4.94633 -3.41347 
138 1 -4.70128 -5.50202 -3.90723 
2835 2 -3.44196 -5.73305 -3.84167 
3413 2 -3.79771 -5.10828 -3.48638 
715 1 -4.61457 -4.67348 -4.47336 
1665 1 -2.24429 -5.55705 -4.14704 
458 1 -2.53607 -4.87672 -4.41107 
3322 2 -1.25551 -5.10255 -4.43798 
2569 1 -1.91363 -6.25067 -3.49971 
534 1 -1.38378 -5.50805 -3.25792 
1468 1 -0.086583 -5.43821 -4.85357 
2656 1 0.46427 -4.83532 -3.93347 
1836 1 -0.377419 -5.11346 -3.88081 
1300 1 1.76528 -5.05645 -4.31988 
133 1 0.671737 -5.6457 -4.15751 
893 1 1.23964 -5.03627 -3.56074 
2918 2 2.50918 -5.62147 -3.4959 
3379 2 2.43457 -4.87471 -3.35808 
879 1 2.80474 -5.0351 -4.48999 
281 1 3.62811 -4.68488 -4.58482 
1511 1 3.71269 -5.59695 -3.6416 
1034 1 5.31267 -5.69393 -3.27782 
2825 2 4.83229 -5.82612 -4.35013 
3340 2 4.67528 -4.91327 -4.01906 
2721 1 5.99947 -5.64006 -4.28407 
964 1 7.10608 -5.26445 -3.55497 
2571 1 6.19973 -5.24898 -3.49953 
1000 1 6.68915 -6.00044 -3.70908 
517 1 -6.77985 -4.42508 -3.71736 
2350 1 -6.86292 -3.49422 -3.85008 
844 1 -6.1218 -3.85887 -4.23928 
1182 1 -5.40735 -4.60879 -3.96856 
1673 1 -5.17497 -3.78247 -4.24627 
647 1 -4.96618 -3.86645 -3.4569 
3536 2 -3.56902 -4.53998 -3.93763 
3562 2 -3.94422 -4.06807 -3.43512 
2524 1 -2.83184 -3.78001 -4.04456 
3285 2 -1.70022 -3.59383 -4.17453 
3480 2 -1.51026 -4.2856 -4.46175 
954 1 -0.706898 -3.95328 -3.67077 
984 1 -0.301489 -4.51414 -4.30991 
781 1 0.130129 -3.85118 -3.69811 
1073 1 1.61636 -4.26608 -4.08036 
2102 1 1.00899 -3.52179 -3.82895 
797 1 2.64821 -4.23823 -4.34892 
168 1 3.24926 -3.94273 -4.00107 
3320 2 1.97037 -3.24926 -3.12815 
1239 1 3.28621 -3.59099 -3.24963 
3244 2 4.6005 -4.14562 -4.15892 
2857 2 4.32079 -3.44166 -4.08526 
1062 1 3.4103 -4.89624 -3.76721 
423 1 5.84929 -4.65409 -4.20873 
148 1 5.73872 -3.55149 -4.42667 
431 1 6.0994 -3.86624 -3.60175 
2858 2 6.95981 -3.67517 -4.7459 
2109 1 6.84114 -4.40676 -3.51318 
1449 1 6.81537 -3.13804 -3.52059 
2215 1 -6.53022 -2.52977 -4.37276 
2157 1 7.20507 -2.51174 -3.81636 
1999 1 -5.75284 -3.08244 -4.13721 
90 1 -5.07073 -2.04773 -4.34042 
1791 1 -5.15896 -2.96907 -3.48658 
525 1 -5.56929 -2.27467 -3.60079 
3083 2 -4.12358 -2.87283 -3.52783 
3376 2 -3.85124 -3.53886 -3.9282 
3229 2 -4.45086 -2.0896 -3.34176 
481 1 -3.389 -2.23574 -4.14541 
2638 1 -2.88658 -2.85463 -3.84411 
2542 1 -3.10089 -1.92371 -3.45928 
635 1 -1.12554 -3.18294 -3.19117 
2916 2 -1.86599 -2.79839 -4.13335 
3198 2 -1.95552 -2.04047 -4.27996 
1961 1 -0.757637 -2.46271 -3.77448 
1998 1 -0.213016 -3.09878 -3.8316 
2067 1 0.655951 -2.60504 -3.53252 
535 1 0.0315878 -2.02388 -3.4974 
1237 1 1.34792 -2.548 -4.21635 
2411 1 1.87996 -3.34916 -4.39543 
1119 1 2.2589 -2.50025 -4.3511 
2299 1 2.96929 -2.40618 -3.42223 
2545 1 3.24578 -2.00591 -4.4966 
1946 1 2.81956 -3.14587 -4.05109 
3353 2 4.11467 -2.67685 -3.87525 
2225 1 5.29022 -2.71452 -4.00776 
3116 2 6.6297 -2.80577 -4.6183 
335 1 5.97076 -2.8837 -3.51961 
2856 2 6.11215 -2.06365 -4.5683 
2351 1 -6.22152 -1.80019 -3.84695 
1882 1 7.15629 -1.6947 -4.53693 
181 1 -6.42604 -1.06148 -3.59598 
443 1 -5.1835 -1.3143 -4.00962 
1913 1 -5.72609 -1.11496 -3.15788 
572 1 -3.72439 -1.32464 -4.1512 
1971 1 -4.43907 -0.626647 -4.04495 
923 1 -4.3704 -1.64911 -4.52827 
1457 1 -3.10726 -0.818785 -4.54924 
2132 1 -3.38863 -0.853743 -3.28828 
2766 2 -2.29559 -1.37986 -3.91075 
2748 2 -2.45104 -0.602839 -3.75861 
1743 1 -1.36761 -1.02746 -4.26692 
2426 1 -0.916937 -1.87525 -4.35735 
2020 1 -0.802611 -1.2739 -3.65523 
3354 2 0.0815696 -1.23445 -4.55799 
1337 1 0.171883 -1.15896 -3.25747 
971 1 0.865101 -1.75676 -3.85979 
692 1 1.55604 -1.72348 -4.46566 
2381 1 1.19949 -0.808017 -4.43885 
1432 1 0.885283 -1.00821 -3.6004 
188 1 1.91206 -1.14147 -3.88309 
506 1 2.59392 -1.71033 -4.08961 
541 1 3.36336 -1.16269 -4.49189 
2084 1 2.87035 -0.709349 -3.90742 
3134 2 4.05829 -1.95947 -3.7605 
2914 2 3.90686 -1.16039 -3.4796 
126 1 4.16138 -0.677115 -4.42383 
1664 1 5.13405 -1.87522 -4.10787 
1307 1 4.91033 -0.806875 -3.85781 
1622 1 5.7057 -1.74309 -3.2879 
2902 2 6.0493 -1.21591 -4.25288 
319 1 7.13659 -1.4137 -3.80025 
2819 2 6.00775 -0.481049 -3.92813 
3186 2 -6.25544 0.237996 -4.59973 
654 1 -6.5893 -0.109595 -3.55641 
2302 1 -5.48434 -0.431852 -3.75964 
1793 1 -5.59767 0.376223 -3.65226 
1572 1 -4.86973 0.136255 -4.01772 
384 1 -3.72814 -0.23698 -3.91852 
2529 1 -4.20821 0.616198 -3.94891 
400 1 -2.92811 -0.00669326 -4.6686 
2789 2 -2.36998 0.0575785 -3.53838 
2108 1 -1.39657 -0.306984 -3.96055 
978 1 -1.5415 0.699338 -4.24812 
3585 2 -0.153695 -0.522306 -4.31268 
3500 2 -0.373371 0.192277 -4.11008 
993 1 0.272329 0.594074 -3.06139 
2489 1 1.74729 -0.226274 -3.8069 
2047 1 1.72916 0.588153 -3.55754 
2328 1 0.857626 0.790464 -3.83543 
2406 1 0.88881 -0.101467 -3.83822 
1703 1 2.86206 0.593368 -4.16339 
1698 1 2.5557 -0.0443415 -3.67517 
2575 1 3.41649 0.0752316 -4.31126 
296 1 4.80876 -0.0238926 -4.17018 
3209 2 5.8884 0.232425 -3.71536 
1720 1 7.03813 0.341707 -3.9246 
2112 1 7.0906 -0.607415 -3.4212 
2267 1 7.07344 -0.628413 -4.21888 
3263 2 -6.3173 0.970366 -4.3535 
3260 2 -6.83853 1.40783 -3.83034 
3033 2 -6.31516 1.90868 -4.16782 
385 1 -5.23719 1.00914 -4.32287 
2061 1 -4.80691 1.32173 -3.7612 
121 1 -5.74866 1.26728 -3.50663 
827 1 -3.30965 0.654537 -4.20135 
2718 1 -3.9176 1.50586 -3.50262 
2241 1 -2.36626 0.965222 -4.53997 
1268 1 -3.35192 1.62566 -4.0646 
683 1 -2.4068 1.81843 -4.33553 
3490 2 -2.48656 0.878552 -3.5215 
1110 1 -1.50459 1.54736 -4.60605 
2663 1 -1.55652 1.33869 -3.61926 
2950 2 -0.530485 1.68735 -3.95318 
3555 2 -0.305696 0.913905 -3.90819 
2013 1 0.667796 1.77357 -4.19239 
922 1 1.45171 1.52563 -3.41722 
1700 1 0.63215 1.44023 -3.40759 
3241 2 1.82841 1.78476 -4.50078 
31 1 2.5038 1.30469 -3.71676 
1299 1 4.1609 0.627471 -4.24726 
1095 1 4.54082 0.737774 -3.43152 
251 1 3.40914 1.3991 -4.22021 
779 1 4.16884 1.54817 -3.79621 
2327 1 4.96962 0.821052 -4.46189 
3369 2 5.57071 0.923665 -3.54165 
1151 1 4.88005 1.72236 -4.25134 
2976 2 5.48385 1.81019 -3.51983 
1575 1 6.56802 0.942271 -4.33116 
2751 2 -6.83206 2.48841 -4.09766 
3021 2 -6.92547 3.29062 -3.8696 
260 1 -5.23115 2.08543 -3.81959 
3062 2 -4.49042 2.80992 -4.72797 
223 1 -5.40566 3.1462 -3.55074 
1615 1 -4.55263 3.38093 -3.27706 
2386 1 -3.55815 2.44417 -4.06538 
710 1 -4.41763 2.35327 -3.57668 
154 1 -3.76968 3.24736 -3.78601 
668 1 -2.57006 2.71803 -4.14205 
301 1 -2.01909 3.35744 -4.25913 
1775 1 -1.87959 2.32446 -3.71334 
1880 1 -1.62726 2.5496 -4.62071 
2860 2 -0.904363 3.26655 -3.67638 
1132 1 -1.29039 3.23614 -4.63771 
3196 2 -0.857841 2.47106 -3.76226 
414 1 0.0544044 3.43975 -4.00093 
3063 2 1.5655 2.51667 -4.23026 
1777 1 0.290408 2.5995 -3.83174 
1012 1 1.15633 2.42498 -3.17035 
2354 1 0.656417 3.19864 -3.24372 
1195 1 3.03092 2.06916 -4.0692 
620 1 2.32219 2.25686 -3.45955 
583 1 2.68003 2.9587 -4.16888 
1694 1 2.19887 3.1902 -3.38904 