ITEM: TIMESTEP
39700
ITEM: NUMBER OF ATOMS
3594
ITEM: BOX BOUNDS pp pp pp
-7.1978745098819203e+00 7.1978745098819203e+00
-7.1978745098819203e+00 7.1978745098819203e+00
-7.1978745098819203e+00 7.1978745098819203e+00
ITEM: ATOMS id type x y z 
1291 1 -5.81196 -6.79145 -5.65135 
639 1 -7.01962 -6.20719 -6.22297 
1345 1 -6.10115 -6.33929 -6.3763 
2582 1 -5.74702 7.08981 -6.42827 
3477 2 -4.61757 -6.92867 -6.02834 
2546 1 -4.49383 -7.03547 -7.12823 
1490 1 -3.73502 -7.14964 -6.50029 
2944 2 -2.47818 6.76329 -6.75236 
3574 2 -2.67097 -6.91513 -6.67313 
1747 1 -1.34233 -7.02709 -6.19671 
2083 1 -1.49938 -6.68543 -6.99511 
579 1 -1.97257 7.10972 -5.71558 
2368 1 0.459661 -6.34731 -6.60534 
3368 2 -0.434201 -6.42707 7.02335 
1689 1 -0.0899781 -6.44651 -4.98148 
1663 1 0.75984 -6.82525 7.03551 
2599 1 1.2777 -6.51184 -6.68947 
2627 1 2.05215 -6.97335 -6.51469 
2623 1 2.95178 -5.71737 -7.1974 
2048 1 2.53791 6.80415 -6.0149 
1905 1 2.71438 -6.91518 -7.05296 
3587 2 3.36108 -6.77347 -6.00372 
1530 1 4.42681 -6.38567 -6.74247 
3442 2 3.2751 -6.07937 -6.18604 
2009 1 4.61482 -5.36531 6.92205 
3208 2 5.48811 -5.86603 -6.71444 
2787 2 5.5364 -6.60577 -6.65574 
1320 1 6.66232 -6.44517 -6.90499 
916 1 6.13311 -6.36776 -5.69862 
1697 1 6.70827 -6.87468 -6.14499 
3495 2 -6.75825 -5.33117 7.12795 
392 1 -4.60395 -6.27444 -7.14005 
1654 1 -4.52857 -5.42831 -6.91806 
2706 1 -5.8633 -5.70146 -6.63554 
2106 1 -6.05627 -4.30684 -6.80068 
2702 1 -3.79446 -6.12292 -6.64056 
2459 1 -3.5888 -5.82372 7.10543 
2981 2 -2.66575 -6.08375 -6.38703 
3061 2 -2.91841 -5.22309 -6.35883 
1183 1 -2.59855 -5.4874 6.87298 
3484 2 -0.703568 -5.06006 -6.92384 
786 1 -0.827017 -5.50425 -5.68703 
2439 1 -1.84904 -4.73867 -6.03525 
842 1 -1.15778 -4.39178 -5.74168 
1984 1 -1.48911 -5.78395 -6.20753 
3019 2 -0.720655 -5.77857 -7.08956 
2453 1 -0.140393 -5.84739 -5.87047 
632 1 0.302561 -5.3976 -6.33087 
1836 1 1.90054 -5.84702 -6.59466 
774 1 1.21474 -5.57828 -6.36416 
1734 1 2.22151 -4.9639 -6.80646 
2957 2 2.9145 -5.32627 -6.04305 
248 1 4.1897 -5.70345 -6.27224 
2415 1 4.10792 -4.39658 7.16133 
2256 1 3.87818 -4.85285 -6.42667 
2812 2 5.36148 -5.16814 -6.56526 
274 1 6.33683 -4.87092 -6.97493 
2500 1 6.7727 -5.47731 -6.29646 
153 1 6.33745 -4.57961 -6.01895 
2975 2 -7.08375 -3.85104 -6.88787 
3029 2 -7.0025 -4.56152 7.12418 
335 1 -6.04118 -4.84315 -6.14194 
1020 1 -5.28013 -5.1299 -6.72436 
1477 1 -4.61023 -4.58691 -6.63531 
2535 1 -6.2002 -3.73659 -6.27667 
1835 1 -4.33868 -3.41015 -6.69631 
2321 1 -3.91224 -4.32081 -6.93939 
139 1 -2.72311 -4.70614 6.87039 
2549 1 -2.3017 -3.72673 -6.59494 
2057 1 -2.36711 -3.01798 -6.85351 
2808 2 -0.838697 -4.29173 -6.72916 
1333 1 0.254199 -3.98943 -7.02547 
607 1 -0.0255286 -3.22729 -6.56159 
2631 1 0.0897058 -4.32491 -6.20022 
1587 1 1.64862 -4.74097 -6.04859 
1050 1 0.901308 -4.42057 -6.41466 
2709 1 2.18338 -4.08914 -6.59076 
250 1 0.677871 -3.48033 -6.04794 
329 1 3.13905 -4.07498 -6.7655 
619 1 2.72969 -4.51005 6.97855 
1418 1 3.03348 -3.07278 -6.75174 
190 1 3.75735 -3.97918 -6.10564 
847 1 4.39429 -3.36685 6.79449 
3212 2 4.95354 -4.45416 -6.51296 
3266 2 4.98718 -3.65983 -6.32669 
2767 2 4.70999 -3.05498 -6.07724 
1597 1 5.99713 -3.33861 -6.25945 
2306 1 5.74646 -2.87884 -5.46233 
1445 1 -6.80702 -3.43527 -5.65363 
88 1 -6.18357 -2.76895 -6.37818 
1640 1 -5.34303 -4.15052 -6.49799 
2661 1 -5.17462 -3.24945 -6.41977 
477 1 -4.79315 -2.53161 -6.21421 
2892 2 -5.23995 -2.37047 6.98184 
2866 2 -4.97408 -3.20094 6.82072 
2320 1 -4.57323 -3.75055 -5.71096 
743 1 -3.12953 -2.23248 -6.81935 
2381 1 -2.93954 -3.92255 7.17169 
911 1 -3.20762 -3.17898 -6.82509 
1474 1 -2.29468 -2.42364 -6.25937 
2397 1 -2.08153 -4.4085 -7.14685 
3332 2 -1.08825 -3.44402 -6.57634 
3234 2 -1.35686 -2.69265 -6.4845 
2042 1 -0.13936 -2.35826 -6.36123 
628 1 1.82942 -2.25697 -6.23644 
3347 2 0.981979 -3.07023 7.16077 
2804 2 0.862917 -2.34564 -6.81484 
151 1 1.91002 -1.94702 -7.18753 
541 1 1.47181 -3.54846 -6.14841 
483 1 2.03236 -3.18281 -6.58845 
2628 1 2.54238 -2.42051 -6.67304 
2645 1 3.33665 -2.10363 -5.9579 
42 1 4.64646 -1.84764 -6.98853 
303 1 3.58765 -2.4599 -6.63419 
3550 2 4.48384 -2.28071 -5.98618 
2510 1 5.69368 -1.39086 -5.52838 
1834 1 4.98421 -2.68665 -7.11018 
304 1 5.70893 -2.19075 -6.20855 
3126 2 7.11706 -3.07221 -6.80124 
2074 1 6.47324 -1.97265 -5.45259 
3087 2 6.73457 -2.29976 -6.78275 
2114 1 -6.35124 -1.78601 -6.26344 
90 1 -6.49753 -0.760839 -6.58024 
3360 2 -5.58081 -1.71172 -7.08209 
56 1 -4.73834 -1.32189 -6.18398 
18 1 -4.07105 -2.69194 -6.9805 
1722 1 -4.33512 -0.532967 6.18055 
1928 1 -4.48081 -1.89888 -6.71296 
965 1 -2.74625 -1.65949 -6.1952 
1635 1 -2.77395 -0.923001 -5.52082 
667 1 -2.06064 -2.13021 7.12309 
3105 2 -1.30998 -1.92627 -6.23303 
1374 1 -0.487531 -1.26952 -7.16871 
1828 1 -1.21729 -2.1368 6.90973 
3088 2 0.590017 -0.702677 -6.60572 
3151 2 0.79443 -1.55357 -6.83092 
1745 1 -0.425981 -0.637218 -6.2126 
2520 1 1.33013 -2.82369 -5.70626 
2600 1 1.86159 -0.422245 -6.19302 
919 1 1.57431 -1.42894 -5.99668 
1859 1 2.79998 -1.63263 -6.34867 
388 1 3.78765 -0.730212 -6.75058 
1648 1 3.78436 -1.56937 -6.70605 
2972 2 4.58229 -1.51823 -5.86191 
556 1 5.5099 -0.571995 -5.57426 
453 1 4.67381 -1.0191 -6.89572 
2072 1 5.48771 -1.29039 -6.40439 
2180 1 6.08524 -1.08036 7.12758 
2840 2 6.63629 -1.60942 -6.33154 
2797 2 6.73341 -0.833047 -6.41951 
2353 1 6.99805 -1.02401 6.91537 
519 1 -6.77751 0.0725827 -6.59922 
385 1 -6.05021 0.0191806 -5.70113 
2605 1 -5.37386 -0.533967 -5.64837 
3097 2 -5.47442 -0.996762 -7.02236 
3127 2 -5.46991 -0.28093 -6.94511 
1224 1 -4.72206 -0.312645 -6.15077 
1001 1 -3.23641 -1.08364 -6.39721 
2699 1 -4.24835 -0.879053 -6.66605 
323 1 -2.489 -1.41 -7.02341 
964 1 -2.68699 -0.52811 -6.79565 
1112 1 -3.79146 -1.59977 -6.91848 
2081 1 -0.94775 -0.611306 -6.99091 
994 1 -0.738344 0.206669 -6.25378 
3311 2 0.529719 0.0948446 -6.54262 
2708 1 2.02807 -1.3827 -6.75613 
1695 1 1.66791 -0.611756 -7.14376 
2150 1 2.51392 0.204732 -6.06845 
296 1 2.8816 -0.543407 -6.22376 
941 1 1.49522 0.415066 -6.5774 
2960 2 2.45351 0.660232 -7.09683 
1085 1 3.41813 0.128403 -6.32106 
1034 1 3.42451 1.52441 -6.95136 
970 1 3.96654 0.792221 -6.75315 
1824 1 4.10614 -0.869888 6.78676 
1362 1 4.41472 -0.13461 -6.65631 
1414 1 6.02992 0.285602 -7.09717 
2380 1 5.39467 -0.541129 -6.45527 
2276 1 5.2346 0.359093 -6.75266 
3135 2 6.55214 -0.151673 -6.14887 
115 1 -7.06026 1.75542 -6.13735 
3007 2 -5.75423 0.413303 -6.73423 
3140 2 -5.84473 1.1864 -6.77503 
2386 1 6.72526 2.17182 -6.75691 
415 1 -4.43052 -0.0114043 -6.86059 
1233 1 -4.874 1.06823 -7.11272 
408 1 -4.7613 0.586056 -6.3022 
1335 1 -4.69457 1.50694 -6.5519 
433 1 -3.61163 -0.360721 -6.31424 
1336 1 -3.907 0.623524 -6.17435 
3148 2 -3.75599 1.32387 -7.14912 
1446 1 -3.18048 1.36259 -5.6711 
883 1 -1.88244 1.94007 -6.52248 
83 1 -3.06293 0.293955 -6.2128 
343 1 -2.431 0.278516 -6.96215 
1370 1 -0.870667 1.85162 -6.92578 
1661 1 -1.51421 0.258691 -7.0724 
1265 1 -1.25052 1.55413 -6.17268 
2928 2 0.0960287 0.821722 -6.38885 
3078 2 0.0941525 1.58277 -6.16262 
583 1 1.08894 1.31956 -6.70063 
1817 1 1.17702 2.04912 -6.18573 
110 1 1.623 1.05371 -6.02748 
1368 1 1.52958 2.01825 -5.52126 
3459 2 2.44885 1.43127 -6.911 
3393 2 2.14008 2.24826 -6.74105 
1876 1 3.19428 0.864227 -6.08646 
312 1 3.21059 1.74918 -5.93636 
1176 1 2.41423 1.02244 -5.80954 
366 1 4.72873 1.00007 -6.2772 
2068 1 4.12774 1.81258 -6.32687 
795 1 4.91459 2.02187 -6.40605 
404 1 5.42979 1.49585 -6.73854 
3038 2 6.20895 0.588893 -6.11141 
2151 1 6.54337 1.29456 7.1812 
3060 2 6.27063 1.41216 -6.03044 
1185 1 -7.09341 0.967924 -6.78986 
3465 2 -6.00375 2.10069 -6.42877 
2736 2 -6.38195 2.96863 -6.29561 
1232 1 -4.99614 2.29517 -6.652 
822 1 -5.01546 3.07787 -6.53143 
1353 1 -4.04877 1.47076 -6.11767 
2275 1 -2.75542 1.86975 -6.62949 
1517 1 -2.21013 2.84355 -6.58616 
1772 1 -2.94477 1.07196 -6.43395 
2576 1 -3.17434 2.32479 -6.24724 
1255 1 -1.29892 2.47782 -6.36255 
3444 2 -0.0818509 2.39836 -6.00655 
2813 2 -0.0957782 3.17195 -6.10349 
2285 1 0.0800217 2.94064 7.17718 
2463 1 0.92259 2.93072 -6.13118 
693 1 0.740937 3.70357 -6.45224 
3417 2 2.02719 3.09542 -6.71945 
1113 1 2.78939 3.44 -6.1462 
1068 1 3.59125 2.44125 -6.31795 
2086 1 3.67716 3.30046 -6.14945 
805 1 4.54511 2.81214 -6.00991 
284 1 5.30975 2.78433 -6.52514 
339 1 5.88707 2.27241 -6.85115 
2061 1 7.16573 3.03154 -7.0076 
2597 1 6.33865 3.16442 -6.72687 
2707 1 6.87569 3.54428 -5.87663 
2685 1 7.05072 2.67781 -6.0362 
3238 2 -6.41914 3.71867 -6.23752 
2519 1 -6.18741 3.81339 6.99181 
536 1 -5.47414 3.35414 -7.10282 
829 1 -5.61161 4.27754 -6.81437 
2783 2 -3.96696 2.73928 -6.99211 
3408 2 -4.09891 3.55044 -6.84894 
2318 1 -3.36719 4.36557 -6.08461 
353 1 -2.21974 3.75103 -6.39716 
1394 1 -2.73649 3.11521 -7.09122 
1881 1 -1.80178 4.32622 -5.87579 
920 1 -1.42875 3.30654 -6.22264 
175 1 -1.198 4.07084 -6.54916 
2401 1 -0.864241 4.39125 6.72828 
1933 1 -0.612346 3.91518 -7.02013 
597 1 1.19688 5.67083 6.9031 
1773 1 0.241584 3.96338 -7.11236 
3478 2 1.76724 3.87522 -6.52942 
3466 2 1.67751 4.65818 -6.24956 
430 1 0.804708 4.80709 -7.01623 
839 1 2.82101 4.71323 -6.51572 
2483 1 4.23766 3.87006 -5.83719 
3551 2 3.9391 4.14028 -6.95831 
2530 1 4.91485 3.56175 -6.33384 
862 1 5.41001 3.57712 -7.00819 
760 1 6.14702 4.26826 -6.55045 
2594 1 7.01032 4.79837 -6.99832 
213 1 6.93287 3.96982 -6.68731 
3045 2 -6.53967 4.52187 -6.04694 
292 1 7.10201 5.32092 6.61268 
2045 1 -5.40229 4.94232 -6.17113 
1845 1 -5.50164 4.58839 -5.32357 
3411 2 -4.35408 4.32151 -6.75253 
3471 2 -4.56804 5.28398 -6.6484 
912 1 -2.46682 4.64459 -6.2343 
1012 1 -2.97042 4.0771 -6.94292 
223 1 -3.31433 4.94707 -6.82586 
2524 1 -1.47705 4.8342 -6.34258 
225 1 -0.874481 4.92905 -6.96672 
1767 1 -0.150368 4.67167 -6.57877 
1889 1 0.255054 5.36885 -6.3535 
1924 1 0.42087 5.15213 -5.36298 
3138 2 1.49912 5.49196 -5.97071 
2675 1 0.644003 6.02003 -6.7785 
1338 1 1.27697 5.01459 6.23804 
215 1 1.78403 5.97233 -7.1284 
703 1 3.32323 4.18154 -5.95984 
474 1 2.52596 5.48821 7.08895 
96 1 2.48796 5.88337 -6.48901 
3223 2 4.04664 5.06038 -6.65893 
3215 2 3.43466 5.54561 -6.8556 
2711 1 5.03737 4.51008 -6.39207 
2678 1 4.62517 5.55613 -5.98196 
1970 1 4.89163 5.37733 7.10125 
1896 1 4.72145 6.14609 -6.83943 
1321 1 -7.19318 4.79691 5.9331 
2142 1 5.44595 5.28835 -6.17201 
1410 1 6.68803 5.92766 -6.62007 
1667 1 6.5067 5.0279 -6.20412 
1616 1 -6.72408 -6.92091 -6.48123 
491 1 -5.64775 6.20016 -6.97511 
1727 1 -7.00576 5.61909 -6.99958 
297 1 -6.07453 5.33384 -6.92152 
3463 2 -4.63125 6.01421 -6.31476 
3150 2 -4.89778 6.7047 -6.08563 
2342 1 -3.55561 5.72659 -6.91674 
3268 2 -2.38998 5.9444 -7.04152 
3454 2 -2.20464 5.22185 7.15864 
601 1 -2.96176 5.47683 -6.13817 
245 1 -0.455959 6.58712 -6.39553 
1308 1 -1.78235 6.39557 -6.06222 
1346 1 -1.23938 5.66564 -6.57633 
1893 1 -1.37429 6.02029 6.99284 
1521 1 0.596662 6.79699 -6.5715 
1639 1 -0.412677 5.71164 -6.55074 
2630 1 -0.0716208 -6.85555 -6.0582 
586 1 0.271426 6.36104 -5.83104 
2899 2 1.26541 7.07028 -5.90432 
2024 1 1.45596 6.82921 -7.05666 
255 1 2.32049 6.66899 -6.86069 
2212 1 2.73581 6.63988 6.81989 
3569 2 3.57779 7.03423 -6.33985 
2790 2 3.69904 6.18591 -6.5691 
1311 1 4.76346 7.02 -6.36857 
302 1 5.35362 6.26064 -6.09072 
3539 2 5.76145 7.14815 -7.02761 
522 1 7.1929 6.70617 -6.66263 
2200 1 6.85138 -7.18708 7.15756 
13 1 6.40775 6.79272 -6.01214 
695 1 -6.21529 -6.11752 -5.39611 
2462 1 -5.56781 -6.06603 -4.75678 
1184 1 -5.31766 7.05738 -5.25215 
833 1 -3.36511 -6.82851 -5.76351 
278 1 -4.89976 -6.5604 -4.68114 
2176 1 -4.2422 -5.76597 -5.06961 
1149 1 -4.1956 -6.83746 -5.14069 
197 1 -2.73616 7.09793 -5.54058 
1567 1 -1.88866 -6.45533 -5.82413 
1435 1 -2.11999 -7.09381 -4.69069 
1643 1 -2.53893 -6.37191 -5.24613 
3322 2 -1.12787 -6.24842 -4.96473 
3594 2 -1.08093 -7.0661 -5.07506 
1093 1 0.187718 6.99389 -5.11683 
1107 1 0.873199 -6.97936 -4.54829 
2491 1 0.580426 -6.12458 -4.29065 
2978 2 0.935255 -6.69022 -5.65702 
3128 2 1.00774 -6.05739 -5.20649 
2096 1 2.4929 -6.02843 -5.27366 
949 1 1.67763 7.12789 -4.88937 
1211 1 2.29655 -6.94595 -5.39415 
799 1 1.69216 6.65105 -4.11562 
1882 1 4.25815 -7.17555 -5.43306 
1442 1 3.80584 -7.0199 -4.78551 
1985 1 5.68264 -7.07378 -5.71548 
924 1 4.84872 -6.67734 -5.72106 
893 1 5.36342 -6.04663 -5.30216 
589 1 6.00097 -6.58626 -4.76729 
3487 2 -6.8921 -6.96193 -5.27955 
610 1 6.40012 7.16181 -5.33648 
1263 1 -6.33018 -5.61268 -5.9509 
1851 1 -6.5634 -5.3104 -4.52222 
316 1 -6.35002 -4.97056 -5.39379 
3520 2 -4.76172 -6.20011 -5.91996 
3416 2 -5.13595 -5.62361 -5.66224 
472 1 -4.94055 -5.72319 -4.33384 
959 1 -3.76396 -5.04479 -5.21064 
2516 1 -4.00571 -5.41342 -6.21163 
2002 1 -3.47603 -6.04935 -5.60279 
1506 1 -2.89736 -5.40877 -5.00868 
897 1 -2.05043 -5.48491 -5.55398 
3480 2 -1.38775 -5.5541 -4.76266 
1127 1 -0.31109 -4.86817 -5.80014 
2626 1 -0.715635 -6.434 -6.16294 
1931 1 -0.0733167 -5.59126 -4.86694 
1837 1 2.94575 -5.37374 -4.82329 
2826 2 0.80157 -5.29907 -5.32383 
3068 2 0.797468 -4.5357 -5.21362 
1385 1 2.10151 -6.46727 -5.89529 
811 1 3.16456 -6.38654 -5.16636 
1234 1 2.807 -4.57142 -4.53196 
2933 2 2.79492 -4.61464 -5.68473 
1945 1 3.56382 -4.99685 -4.36585 
2469 1 4.23772 -6.23607 -5.59538 
1425 1 3.71193 -5.58374 -5.0971 
1416 1 3.95136 -4.78454 -5.43784 
779 1 4.783 -5.52125 -5.60741 
2828 2 7.10333 -6.33728 -5.05694 
3010 2 7.02149 -5.57082 -5.10439 
72 1 6.0158 -5.54979 -4.61479 
2015 1 6.0122 -5.48268 -5.56298 
572 1 -6.74742 -4.24642 -5.71293 
2670 1 6.66307 -3.73768 -5.99072 
3325 2 -5.16713 -4.88384 -5.41394 
2912 2 -5.46625 -4.04722 -5.31387 
1671 1 -3.50742 -3.80316 -4.8179 
1979 1 -4.11839 -4.36704 -4.91514 
977 1 -4.25127 -4.62793 -5.9241 
3041 2 -3.15734 -4.51538 -6.12556 
386 1 -2.31522 -4.45287 -5.31089 
1629 1 -2.60611 -3.65441 -4.91407 
484 1 -1.88309 -3.7042 -5.70173 
2105 1 -0.543886 -3.76288 -4.56513 
2263 1 -0.470583 -4.24672 -5.2494 
3227 2 0.391366 -2.88359 -4.76761 
2768 2 0.566577 -3.76771 -5.10844 
2537 1 1.8667 -5.49095 -5.66805 
1313 1 1.73699 -4.00293 -5.54153 
19 1 1.9182 -4.43935 -4.73473 
3249 2 2.75967 -3.77058 -5.68322 
26 1 3.99486 -3.60775 -5.30676 
2558 1 3.60631 -4.2152 -4.85366 
2539 1 4.56387 -4.27135 -5.47769 
452 1 5.42199 -4.82121 -5.22791 
1322 1 5.58025 -4.06023 -5.48646 
2727 1 -7.0402 -4.93259 -6.24085 
2101 1 6.64411 -2.76937 -5.77938 
3173 2 6.654 -3.87565 -4.84779 
2612 1 -6.96558 -2.87955 -4.89515 
2737 2 -5.71332 -3.32832 -5.31146 
1006 1 -6.05577 -2.51007 -4.00261 
2890 2 -5.89656 -2.53744 -5.08539 
2480 1 -4.65997 -2.84856 -5.27176 
2869 2 -3.47965 -3.74914 -5.95653 
1285 1 -3.71956 -3.04547 -4.63104 
2844 2 -3.68935 -2.79392 -5.88351 
2262 1 -2.50434 -3.18216 -5.87671 
594 1 -2.93012 -2.59274 -4.98013 
1087 1 -0.951284 -3.43377 -5.34612 
527 1 -0.412679 -2.70107 -5.56755 
858 1 -1.81539 -2.83016 -5.39661 
3430 2 0.195181 -2.04581 -4.57685 
922 1 -0.182891 -3.60381 -5.78947 
2013 1 -0.22184 -1.59766 -6.39224 
502 1 0.460534 -2.56704 -5.77324 
840 1 1.63492 -3.28813 -4.96827 
3014 2 2.58444 -2.91754 -5.63662 
2830 2 2.5308 -2.37302 -5.09637 
1415 1 4.57738 -2.82274 -4.99596 
850 1 3.57285 -3.18385 -5.83475 
27 1 2.99938 -1.71789 -4.27118 
1215 1 3.28368 -3.46704 -4.5486 
85 1 3.56665 -2.79885 -4.89909 
346 1 5.12739 -3.48077 -5.16652 
1987 1 6.38719 -0.899185 -5.31488 
873 1 5.4149 -2.24082 -5.15336 
2721 1 -6.89764 -2.27496 -5.79231 
148 1 -6.86428 -1.29426 -5.78666 
41 1 -5.57007 -1.94734 -6.04396 
2360 1 -5.94065 -1.01812 -5.96768 
2974 2 -6.2497 -1.76048 -5.01776 
2993 2 -6.19294 -1.07253 -4.79698 
874 1 -4.81706 -1.93356 -5.33128 
1781 1 -5.13652 -1.22911 -5.47859 
1316 1 -4.99597 -0.998845 -4.57323 
3543 2 -3.6135 -2.1072 -5.79686 
3256 2 -3.83186 -1.48301 -5.60861 
913 1 -2.37533 -2.11525 -5.50563 
2465 1 -2.86875 -1.63669 -5.03197 
3200 2 -1.51732 -1.25916 -6.2366 
460 1 -1.66795 -1.79564 -5.18441 
1195 1 -1.10832 -1.1515 -4.66232 
154 1 -0.764487 -1.70229 -5.31309 
400 1 -0.0406067 -1.75861 -5.56364 
3354 2 0.111792 -1.19693 -4.54033 
1489 1 -0.61409 -0.829671 -5.41925 
1644 1 1.31724 -2.22725 -4.94507 
1897 1 0.841584 -1.72542 -5.60748 
2390 1 0.290719 -0.809217 -5.60029 
3356 2 2.26872 -1.72772 -5.31472 
3557 2 2.3893 -1.06124 -5.25657 
40 1 3.71758 -1.79834 -5.07312 
656 1 3.45832 -1.21463 -5.87651 
2995 2 4.44564 -0.847795 -5.63023 
1527 1 4.35482 -2.07396 -4.74637 
1911 1 3.40111 -0.897167 -4.93195 
1830 1 4.30184 -1.12792 -4.63671 
734 1 5.3744 -0.955992 -4.84259 
2617 1 -6.76752 -0.483441 -5.56318 
1927 1 -7.17519 0.345851 -5.41716 
1369 1 6.97295 -0.275065 -5.01699 
1483 1 7.06212 -1.06471 -5.07645 
3267 2 -6.14767 -0.268787 -4.57603 
3186 2 -6.15275 0.515575 -4.57131 
668 1 -6.15962 1.04214 -5.60858 
670 1 -5.28407 0.401306 -5.52871 
1953 1 -5.14885 -0.255307 -4.93427 
3144 2 -3.95933 -0.711088 -5.42085 
174 1 -2.49752 -0.432132 -4.80004 
2589 1 -2.05423 -1.07604 -5.25078 
596 1 -2.87762 -0.153918 -5.53201 
640 1 -2.19018 0.339318 -4.67027 
2796 2 -1.75577 -0.487925 -6.08082 
1623 1 -0.735173 0.927698 -5.58295 
2712 1 0.100721 0.111666 -5.54997 
1971 1 -0.874982 0.0303655 -5.24539 
308 1 0.790524 0.367943 -4.9924 
76 1 1.22119 -0.871219 -5.55677 
3383 2 2.04741 0.114075 -5.02686 
3449 2 2.22217 -0.511045 -4.73647 
130 1 3.09027 -0.18616 -5.51435 
891 1 3.84808 -0.167851 -4.54579 
3317 2 4.35444 -0.0980094 -5.63138 
2848 2 3.98376 0.606597 -5.38352 
1788 1 5.29271 0.751298 -4.9735 
167 1 3.11624 0.0756775 -4.45567 
1472 1 5.22652 -0.100349 -4.87567 
499 1 6.05058 -0.0120771 -4.97769 
1207 1 7.14107 1.24495 -5.31728 
34 1 6.24552 0.778732 -5.01632 
817 1 -6.41665 1.85767 -5.41007 
1607 1 -6.7194 0.716321 -6.07408 
1514 1 -5.21275 1.27715 -5.75604 
2037 1 -5.57802 1.55178 -4.91203 
2861 2 -4.05168 0.0353161 -5.23446 
1512 1 -3.52618 2.07754 -5.39953 
3062 2 -4.22711 0.905124 -5.07932 
2466 1 -3.06291 0.682018 -5.30299 
2846 2 -2.01648 0.996412 -5.73705 
1198 1 -2.24491 1.22599 -4.47136 
2939 2 -1.78708 0.25841 -5.84314 
287 1 -2.19826 1.16058 -6.83337 
159 1 -1.24105 1.33289 -4.97173 
1894 1 -1.39161 0.518785 -4.68068 
603 1 -0.178567 0.951498 -4.96778 
2673 1 0.844542 1.05859 -5.52466 
46 1 -0.963206 2.03077 -5.31496 
2730 1 1.18618 0.0499251 -5.69518 
3241 2 1.75192 1.52445 -4.42751 
3443 2 1.79844 0.776935 -4.76029 
1524 1 3.01132 0.598653 -5.25993 
851 1 3.0657 1.49725 -5.09113 
3364 2 4.12407 1.39276 -5.34798 
3388 2 3.92012 2.17867 -5.20347 
1883 1 5.3104 0.404789 -5.72353 
50 1 5.86332 1.53072 -4.81477 
723 1 6.79328 2.02147 -5.02066 
1282 1 6.70439 1.31565 -4.50839 
1331 1 -6.9432 2.59626 -5.17202 
2578 1 -5.6382 2.37237 -4.65908 
131 1 -6.98523 3.41701 -5.16161 
1238 1 -5.14706 2.26892 -5.67599 
3456 2 -4.5775 2.47474 -4.75883 
2560 1 -4.25921 2.40347 -5.95101 
2845 2 -4.49024 1.66426 -4.98612 
803 1 -3.73248 3.0179 -5.56305 
3117 2 -2.14945 1.67784 -5.50595 
2945 2 -2.38137 2.60738 -5.44463 
330 1 -1.26955 2.91112 -5.52891 
1484 1 -1.78578 1.70164 -4.08132 
673 1 -0.495804 2.86874 -4.95142 
1257 1 -1.55096 2.38576 -4.80125 
620 1 0.587134 2.62526 -5.23005 
823 1 0.821999 1.76088 -5.11459 
1978 1 1.61376 2.95962 -5.68119 
23 1 2.51629 2.49293 -4.87745 
2575 1 2.2769 1.69646 -5.38229 
3433 2 3.52422 2.78049 -4.94754 
194 1 5.18054 1.30721 -5.57916 
2147 1 6.03448 2.32701 -4.51123 
3298 2 5.96804 3.08122 -5.68336 
2433 1 4.84783 2.49413 -4.71842 
82 1 5.00351 2.41774 -5.53812 
1684 1 6.64425 3.844 -4.87846 
3414 2 6.05397 2.10863 -5.72531 
2317 1 6.29218 2.92471 -3.80646 
1229 1 -6.13805 3.95469 -5.19578 
2297 1 -6.30752 4.52327 -4.56583 
1691 1 -4.57696 3.34635 -5.8829 
35 1 -5.44626 3.07598 -5.79403 
2885 2 -4.79297 3.23888 -4.71843 
59 1 -3.7943 3.86166 -5.44777 
1344 1 -3.12359 3.44306 -6.13545 
992 1 -3.78203 3.68807 -4.51439 
2977 2 -2.54758 3.37424 -5.23041 
2865 2 -2.69288 4.16693 -5.05656 
686 1 -1.50028 3.78882 -5.43434 
1638 1 -1.13294 3.55252 -4.8431 
3378 2 -0.211633 3.83355 -5.84265 
867 1 0.0562629 3.32641 -4.82763 
3392 2 -0.601134 4.4389 -5.50223 
1505 1 0.710693 4.21066 -5.2124 
324 1 0.691693 4.39916 -6.04563 
2542 1 0.742978 3.41928 -5.33337 
371 1 1.68794 3.94794 -5.27577 
1677 1 2.65513 2.60499 -5.74146 
1066 1 2.41672 3.54181 -5.44574 
2814 2 3.23654 4.02643 -4.88729 
1923 1 2.17165 3.2481 -4.79427 
377 1 4.66513 3.4111 -5.19376 
16 1 3.61428 4.90893 -5.7871 
2894 2 3.63677 3.47669 -5.02712 
221 1 4.56584 4.32531 -4.74455 
1513 1 4.40839 3.03906 -4.21695 
2917 2 5.69989 3.77605 -5.70258 
2927 2 5.55152 4.4944 -5.27234 
1200 1 6.71572 4.42607 -5.72572 
1169 1 -7.04955 4.33628 -5.22765 
3147 2 -6.84253 5.1572 -5.82382 
29 1 -6.06419 5.2113 -4.96137 
1899 1 -7.06315 5.01326 -4.68824 
443 1 -5.22847 3.98978 -5.89593 
561 1 -4.56033 4.36017 -5.451 
942 1 -5.49486 5.75321 -5.26034 
587 1 -4.77451 5.29727 -5.40653 
507 1 -3.92869 5.02696 -5.76269 
1481 1 -4.01178 5.79265 -4.5644 
754 1 -4.03765 4.90435 -4.82695 
3458 2 -2.92677 5.01001 -5.0729 
2988 2 -2.87111 5.81245 -4.86027 
448 1 -0.481232 3.96783 -4.4451 
341 1 -1.92873 5.50758 -5.85976 
2603 1 -1.75577 4.81191 -5.09462 
3207 2 -0.725506 5.30236 -5.53668 
2208 1 0.183591 5.43906 -4.61848 
301 1 1.2208 5.02592 -4.99742 
84 1 2.06842 4.84452 -4.89988 
1261 1 2.32756 4.90072 -4.14737 
1848 1 0.527531 5.93101 -5.1893 
2392 1 0.132277 6.20351 -4.42 
899 1 2.49393 4.34622 -5.50285 
2379 1 2.76709 5.26029 -5.87915 
1515 1 4.4298 5.52546 -4.91664 
2088 1 4.40338 4.79856 -5.46166 
3257 2 5.42345 5.31511 -5.0205 
2971 2 5.46575 6.02732 -4.84762 
440 1 6.4923 4.59375 -4.74605 
1341 1 6.4379 5.46272 -5.26523 
558 1 -6.44777 6.29464 -6.74088 
3330 2 -6.91405 5.98275 -5.66663 
1872 1 -5.81205 5.71804 -6.24099 
698 1 -6.11555 -7.10867 -4.70316 
2473 1 -6.03426 6.49814 -4.92823 
2033 1 -5.8906 6.48124 -5.84479 
1733 1 -4.66644 6.05695 -5.01321 
1235 1 -3.90038 6.69749 -5.39121 
1391 1 -3.78674 5.78308 -5.4946 
2635 1 -2.74355 6.27334 -5.83861 
2446 1 -3.41896 6.55162 -6.04016 
3265 2 -3.11543 6.48789 -4.65771 
1499 1 -1.79047 6.45947 -5.05453 
3455 2 -0.801166 6.74026 -5.51374 
3018 2 -0.683554 6.00198 -5.26691 
2669 1 -0.032408 7.05657 -4.33463 
172 1 -0.693318 5.52433 -4.2898 
2831 2 1.47489 6.28804 -5.9517 
2429 1 1.07909 6.51107 -4.7989 
696 1 2.90138 6.15807 -5.69378 
849 1 2.26238 5.6417 -5.32441 
1935 1 2.15667 6.47414 -5.07106 
2305 1 3.74198 5.8143 -5.40416 
798 1 2.96738 6.96666 -5.2156 
244 1 4.3038 6.2195 -4.47469 
189 1 4.48093 6.43915 -5.74266 
2926 2 5.24929 6.66147 -5.01676 
2747 2 -6.8294 6.75573 -5.62519 
1871 1 6.38375 6.79508 -4.27813 
1965 1 6.1753 6.02117 -5.91589 
1399 1 6.57726 6.47453 -5.06366 
2533 1 -6.30257 -6.29182 -4.48164 
1013 1 -6.89387 -6.03619 -3.72898 
3228 2 -5.3426 -7.08706 -3.76664 
3375 2 -5.62366 -6.35881 -3.58505 
1406 1 -4.453 -6.35728 -3.78279 
2248 1 -4.48738 6.8552 -4.75945 
427 1 -2.43104 -6.03412 -4.39412 
3413 2 -3.47808 -6.39156 -4.42218 
2835 2 -3.07241 -7.176 -4.43204 
2496 1 -1.86416 -6.47866 -3.99437 
1327 1 -1.32452 6.81797 -3.93502 
1585 1 -0.982121 -6.74782 -3.87481 
486 1 -0.207235 -6.58618 -4.0947 
15 1 1.43671 -5.75452 -4.24549 
3056 2 0.659295 6.95963 -3.51843 
224 1 1.85685 -6.52962 -4.78379 
2238 1 1.52368 -6.87081 -3.88925 
3303 2 2.78086 6.82265 -4.00984 
2918 2 2.74032 -6.88592 -4.11923 
2136 1 3.86486 6.91264 -4.14718 
2566 1 3.56124 -6.13731 -4.36286 
1019 1 4.60112 -6.10141 -3.43641 
3290 2 4.97174 -7.10889 -4.62389 
2825 2 4.58821 -6.38185 -4.47063 
997 1 5.78834 -6.1389 -4.00229 
2703 1 3.78997 -6.80394 -3.51499 
1000 1 5.77973 -7.10556 -3.95991 
1461 1 -7.18657 6.7465 -4.32604 
2507 1 7.18611 -4.95938 -3.91155 
844 1 -6.35569 -4.41745 -4.57612 
523 1 -4.61489 -4.80556 -4.45999 
1994 1 -5.69151 -5.05675 -4.6047 
1187 1 -4.48386 -5.57108 -3.24339 
843 1 -3.69365 -5.03058 -2.72203 
3562 2 -3.62555 -5.70457 -4.05252 
3536 2 -3.65817 -4.96991 -3.78131 
314 1 -2.59464 -4.9731 -3.38895 
3285 2 -1.45475 -4.77744 -4.68774 
127 1 -1.77055 -5.52456 -3.6804 
1846 1 -1.79025 -4.59456 -3.53194 
2038 1 -0.681817 -4.78733 -3.78606 
2052 1 -0.563264 -5.76198 -4.0377 
1799 1 0.38568 -5.27305 -4.01977 
1538 1 1.89643 -5.35196 -4.76777 
2632 1 1.12878 -5.01775 -3.13648 
1683 1 1.23496 -4.19103 -2.63019 
1130 1 1.32869 -6.02364 -3.4517 
3379 2 2.54471 -6.12018 -3.98321 
3230 2 2.28571 -5.37503 -3.64556 
3244 2 4.72224 -4.83221 -4.43936 
701 1 3.44468 -5.21164 -3.48612 
3340 2 4.75928 -5.56534 -4.49977 
451 1 5.72256 -4.15179 -4.53221 
1364 1 6.00293 -4.90894 -4.09498 
2659 1 6.55856 -4.4411 -3.56266 
655 1 6.80379 -5.73456 -4.14983 
98 1 6.76125 -6.71327 -4.07903 
1031 1 -6.95165 -4.0145 -4.02909 
1444 1 -6.59444 -3.70068 -4.8643 
1182 1 -5.58235 -4.23356 -4.14314 
1449 1 -5.72726 -3.33588 -4.23591 
2674 1 -4.91793 -4.82713 -3.78198 
1144 1 -3.08094 -4.54216 -4.73752 
1361 1 -4.76009 -3.91129 -4.28908 
3376 2 -3.78055 -4.22724 -3.80495 
3083 2 -3.90963 -3.42426 -3.69207 
1086 1 -2.44724 -5.02692 -4.27637 
2044 1 -2.7412 -4.05948 -4.14946 
3198 2 -1.5892 -4.00761 -4.35175 
2058 1 -0.354068 -4.84324 -4.70913 
1552 1 0.928469 -4.15611 -3.68334 
1422 1 -0.02244 -3.40423 -3.82472 
1028 1 0.0754586 -4.38456 -4.09873 
1160 1 1.25311 -4.86035 -4.21361 
1582 1 1.94264 -3.83438 -2.21809 
1611 1 1.46277 -3.85157 -4.31812 
3015 2 2.29208 -4.65806 -3.56046 
1967 1 2.47002 -3.79443 -4.57101 
927 1 3.38983 -4.41947 -2.88904 
2857 2 4.56382 -4.10055 -4.37643 
3353 2 4.47312 -3.44063 -3.92359 
1575 1 3.48694 -4.39183 -3.87437 
535 1 4.96623 -5.35304 -2.99635 
1372 1 5.33052 -3.15224 -4.47267 
3080 2 6.91542 -4.63998 -5.01382 
1595 1 5.98243 -3.79264 -3.76979 
721 1 5.51819 -3.08639 -3.53554 
1151 1 -5.51731 -2.09565 -3.79636 
2132 1 7.16905 -2.10998 -5.01086 
2351 1 -6.8261 -3.17912 -4.11882 
1140 1 -4.45587 -3.59548 -4.92851 
1392 1 -4.97811 -2.81808 -4.32923 
3229 2 -4.1663 -2.688 -3.63922 
2241 1 -3.46255 -1.90452 -4.56354 
2511 1 -2.45206 -3.29189 -3.3049 
228 1 -2.91141 -3.1135 -4.04714 
1023 1 -3.20748 -2.3343 -3.82911 
2916 2 -1.80796 -3.26628 -4.31798 
180 1 -0.724187 -2.7306 -4.37748 
2139 1 -1.06291 -2.45589 -5.17031 
2766 2 -1.88381 -2.29537 -4.19797 
2400 1 -0.95523 -2.05812 -3.49494 
2260 1 -0.0469175 -2.42322 -3.63781 
1239 1 0.788952 -2.3995 -3.46919 
749 1 0.797485 -3.2809 -3.81778 
2901 2 1.89592 -3.09519 -3.2068 
984 1 1.44892 -2.89952 -4.29834 
566 1 2.30845 -2.87274 -4.32167 
1653 1 2.8 -1.92258 -3.41499 
1237 1 2.15255 -1.83821 -4.21374 
169 1 3.13701 -3.50371 -3.70091 
3134 2 4.09099 -2.67803 -3.68922 
1841 1 5.16708 -2.30963 -4.01673 
1226 1 5.27152 -4.34927 -3.48203 
960 1 5.30484 -1.63189 -3.42455 
1340 1 4.97874 -1.59741 -4.52952 
1428 1 6.72911 -3.53662 -3.43764 
2858 2 6.44152 -3.10726 -4.76216 
3116 2 6.27922 -2.27807 -4.42854 
1548 1 6.5949 -2.74717 -3.52104 
2126 1 -6.88085 -2.27492 -4.13939 
1458 1 -5.51932 -1.1037 -3.76763 
2157 1 -5.22888 -1.98454 -4.57624 
2302 1 -4.26321 -2.39678 -4.72711 
3447 2 -4.47301 -1.81321 -3.65437 
262 1 -3.53789 -1.39558 -3.73607 
412 1 -4.13775 -1.40514 -4.65624 
2108 1 -3.26417 -1.01284 -4.63468 
2748 2 -2.23311 -1.57628 -4.01846 
2789 2 -2.45765 -0.753535 -3.92269 
1491 1 -0.820415 -1.9096 -4.39862 
954 1 -0.975505 -1.05064 -3.94627 
969 1 -1.98001 -0.70065 -2.74866 
393 1 0.0627983 -0.613277 -3.50987 
904 1 -0.22577 -1.51891 -3.49699 
3585 2 0.0140895 -0.487391 -4.58963 
2237 1 0.573808 -1.55317 -3.08706 
2411 1 1.2564 -2.13745 -4.15108 
75 1 1.09546 -1.25957 -3.82542 
1300 1 2.93457 -0.870412 -4.06761 
482 1 1.92837 -1.06966 -3.94546 
1890 1 2.72048 -1.10553 -3.23956 
2298 1 1.26021 -1.32316 -4.80477 
2914 2 3.88696 -1.97931 -3.72924 
3483 2 3.99795 -1.24381 -3.69867 
1325 1 5.01047 -0.897851 -3.73424 
2856 2 6.1963 -1.49973 -4.15911 
1343 1 -7.10641 -1.39541 -4.03202 
1999 1 6.72035 -0.22098 -3.22376 
2902 2 6.06957 -0.682492 -4.01652 
2311 1 -6.35935 -1.55308 -3.67939 
2054 1 -6.52377 -0.763315 -3.4554 
1568 1 -7.08247 0.425005 -3.52608 
2448 1 -5.45701 -0.11627 -3.66834 
1910 1 -5.11715 0.742932 -4.34204 
1790 1 -4.69751 -0.355477 -4.17195 
1579 1 -3.95006 -0.505051 -4.10648 
2436 1 -4.38391 0.484169 -3.98349 
2508 1 -3.23188 0.236881 -4.42879 
3490 2 -2.4729 -0.129176 -3.56718 
3588 2 -2.78845 0.569436 -3.39998 
2609 1 -1.56331 -0.412863 -4.75407 
1441 1 -0.727195 -0.555289 -3.31736 
3500 2 -0.434318 0.182458 -4.36774 
1777 1 -0.316692 0.269252 -3.00108 
876 1 1.05679 -0.411406 -3.85624 
1266 1 0.388451 0.320728 -3.52716 
1065 1 0.688876 0.733142 -4.23782 
2187 1 1.10688 -0.305942 -4.67136 
665 1 1.98748 -0.201706 -3.63759 
414 1 2.45066 0.532436 -3.79885 
3305 2 3.73822 -0.565678 -3.2847 
3394 2 3.47317 0.165287 -3.36283 
2819 2 5.783 0.054734 -3.7391 
1328 1 4.70253 -0.309928 -4.31634 
504 1 4.61335 0.113929 -3.70227 
802 1 7.14261 -0.417979 -4.09961 
2584 1 6.69542 0.327967 -4.27983 
1807 1 6.48767 0.641031 -3.04719 
3263 2 -6.71199 0.918595 -4.38692 
1078 1 6.79534 1.19739 -3.65069 
2010 1 -5.67787 1.04259 -3.59157 
1725 1 -5.45791 1.76728 -3.9937 
521 1 -4.39742 1.37924 -3.74799 
928 1 -6.26689 0.162229 -3.23934 
2383 1 -5.97285 2.12747 -3.3763 
697 1 -3.65937 0.964674 -4.00776 
1809 1 -3.75147 1.56853 -3.17747 
3120 2 -2.60683 1.34551 -3.34793 
1367 1 -1.60016 0.592233 -3.83367 
3372 2 -2.78475 2.12423 -3.28193 
1064 1 -1.3306 -0.246594 -3.9507 
1812 1 -1.43828 1.71263 -3.10731 
3555 2 -0.519958 0.842911 -3.93785 
2950 2 -0.731082 1.57311 -4.08645 
1562 1 0.490108 1.5682 -4.37734 
1432 1 1.14122 1.2852 -3.53426 
1375 1 1.55848 2.20917 -3.24121 
295 1 1.42936 0.445106 -3.82903 
2407 1 2.94309 0.936824 -4.53531 
785 1 2.16768 1.43565 -3.41303 
2460 1 1.9855 0.634808 -3.14073 
2021 1 4.58538 0.815706 -4.41735 
1092 1 5.07257 1.66511 -4.69909 
613 1 3.78079 0.690799 -4.29783 
925 1 4.54801 1.09014 -3.34623 
2908 2 3.41029 1.00725 -3.18546 
3209 2 5.61255 0.776615 -3.86556 
3369 2 5.51076 1.83463 -3.60988 
1913 1 6.58311 2.04381 -3.87987 
1853 1 7.1946 2.00938 -3.1151 
3260 2 -6.56692 1.76021 -4.34888 
3033 2 -6.82687 2.42968 -3.98883 
1060 1 -6.05255 3.0652 -3.30484 
2396 1 -6.00675 2.84271 -5.14497 
731 1 -4.71033 2.249 -3.70245 
1880 1 -5.49605 2.82788 -3.90807 
1148 1 -3.69938 2.16264 -3.99928 
286 1 -4.03199 2.9912 -3.85978 
2490 1 -2.31303 2.4045 -4.33518 
2077 1 -3.36688 2.6164 -4.65305 
2395 1 -3.12163 1.56936 -4.48665 