ITEM: TIMESTEP
39600
ITEM: NUMBER OF ATOMS
3594
ITEM: BOX BOUNDS pp pp pp
-7.1978626303743392e+00 7.1978626303743392e+00
-7.1978626303743392e+00 7.1978626303743392e+00
-7.1978626303743392e+00 7.1978626303743392e+00
ITEM: ATOMS id type x y z 
1291 1 -5.93007 -6.72901 -5.47223 
639 1 -6.99811 -6.25519 -6.39229 
1345 1 -6.0244 -6.23243 -6.4018 
2582 1 -5.84173 -7.05069 -6.66014 
3477 2 -4.85808 -6.79602 -5.90448 
2546 1 -4.62023 -6.82037 -6.97906 
1490 1 -3.6609 -6.71307 -6.43757 
2944 2 -2.48573 6.81458 -6.78491 
3574 2 -2.54303 -6.78868 -6.57073 
1747 1 -1.12075 -7.02603 -6.17626 
2083 1 -1.61669 -6.60519 -6.89112 
579 1 -1.8035 7.04767 -5.71454 
2368 1 0.438056 -6.77111 -6.53539 
3368 2 -0.473461 -6.47127 -6.85025 
1689 1 0.267246 -6.5879 -5.12385 
1663 1 0.803333 -7.18222 6.94662 
2599 1 1.33552 -6.41954 -6.80425 
2627 1 2.28591 -6.81437 -6.5211 
2623 1 2.68411 -6.18814 -7.08238 
2048 1 2.50117 6.93078 -6.07856 
1905 1 2.87728 -7.11003 -7.11109 
3587 2 3.45 -6.8846 -6.19418 
1530 1 4.56333 -6.77463 -6.75234 
3442 2 3.18495 -6.04251 -6.13952 
2009 1 4.39497 -5.17181 6.98843 
3208 2 5.26684 -6.00503 -6.643 
2787 2 5.74781 -6.63396 -6.90264 
1320 1 6.73106 -6.39169 -7.14244 
916 1 6.30092 -6.35735 -5.94586 
1697 1 6.78114 -6.9826 -6.4105 
3495 2 -6.98177 -5.02909 7.11361 
392 1 -4.70883 -5.93965 -7.02039 
1654 1 -4.32888 -5.06878 -6.81847 
2706 1 -5.66086 -5.51902 -6.76378 
2106 1 -5.80239 -4.16765 -7.04839 
2702 1 -4.13777 -6.1347 -6.38888 
2459 1 -3.72045 -5.73505 -7.10652 
2981 2 -2.66931 -6.02268 -6.37048 
3061 2 -2.93139 -5.34469 -6.38305 
1183 1 -2.8149 -5.52723 6.93512 
3484 2 -0.906244 -4.94011 -6.89481 
786 1 -0.986707 -5.61267 -5.88455 
2439 1 -1.80655 -4.77694 -6.11245 
842 1 -1.00822 -4.61464 -5.59744 
1984 1 -1.66013 -5.78799 -6.23763 
3019 2 -0.705603 -5.73752 7.17496 
2453 1 0.0963016 -5.96655 -6.11402 
632 1 0.226024 -5.10317 -6.30617 
1836 1 1.94241 -5.93405 -6.48965 
774 1 1.19366 -5.42917 -6.3905 
1734 1 2.46211 -5.19234 -6.71702 
2957 2 3.2477 -5.27812 -5.92364 
248 1 4.27435 -5.88068 -6.27765 
2415 1 4.3617 -4.22438 7.09411 
2256 1 4.13648 -4.81587 -6.47009 
2812 2 5.19685 -5.2291 -6.58061 
274 1 6.2263 -5.14669 -7.05637 
2500 1 6.79809 -5.67243 -6.48892 
153 1 6.36904 -4.6056 -6.20808 
2975 2 -7.16796 -3.50034 -7.02341 
3029 2 -6.90286 -4.30593 -7.10435 
335 1 -6.16484 -4.66139 -6.41618 
1020 1 -5.22534 -4.68887 -6.73545 
1477 1 -4.57353 -4.46464 -6.32548 
2535 1 -6.24359 -3.60138 -6.28283 
1835 1 -4.20579 -3.43963 -6.72933 
2321 1 -3.84633 -4.45077 -6.95654 
139 1 -2.5308 -4.67738 7.16456 
2549 1 -2.12468 -4.06441 -6.1384 
2057 1 -2.37948 -3.46727 -6.62332 
2808 2 -1.01926 -4.15904 -6.54487 
1333 1 0.124002 -3.92898 -6.91602 
607 1 -0.283889 -3.15049 -6.64303 
2631 1 -0.0120549 -4.24545 -5.97438 
1587 1 1.7693 -4.72277 -6.1917 
1050 1 0.916246 -4.4037 -6.1314 
2709 1 2.06209 -3.93361 -6.5291 
250 1 0.422062 -3.39728 -6.1609 
329 1 3.38273 -4.21367 -6.8378 
619 1 2.59686 -4.51439 7.14768 
1418 1 3.02195 -3.3622 -6.87652 
190 1 3.86446 -3.98565 -6.02166 
847 1 4.77255 -3.46583 6.63394 
3212 2 5.37885 -4.31924 -6.45997 
3266 2 4.89629 -3.7656 -6.41476 
2767 2 4.86208 -3.07908 -6.19461 
1597 1 6.18997 -3.4424 -6.33652 
2306 1 5.6806 -3.08002 -5.54001 
1445 1 -6.85737 -3.3889 -5.61947 
88 1 -6.13841 -2.66645 -6.36604 
1640 1 -5.2396 -3.8133 -6.45931 
2661 1 -5.37347 -3.05194 -6.32505 
477 1 -4.73257 -2.46875 -6.37547 
2892 2 -5.37298 -2.56803 6.99202 
2866 2 -5.04924 -3.26215 6.92123 
2320 1 -4.4606 -3.73011 -5.99618 
743 1 -3.24896 -2.3418 -6.90286 
2381 1 -2.9432 -3.90998 -7.15641 
911 1 -3.18608 -3.18066 -6.92534 
1474 1 -2.52883 -2.5787 -6.43781 
2397 1 -1.97046 -4.18494 -6.99395 
3332 2 -1.19152 -3.36862 -6.38484 
3234 2 -1.35891 -2.64883 -6.47775 
2042 1 -0.124446 -2.41019 -6.46713 
628 1 1.74721 -1.88423 -6.32109 
3347 2 1.00794 -2.91622 -7.1783 
2804 2 0.917615 -2.19024 -7.02626 
151 1 1.95048 -2.02072 7.09452 
541 1 1.33433 -3.54529 -6.10937 
483 1 1.99718 -2.99385 -6.62632 
2628 1 2.70556 -2.45918 -6.82247 
2645 1 3.28024 -2.25514 -6.12024 
42 1 4.60721 -1.70426 -6.93377 
303 1 3.68007 -2.77257 -6.76798 
3550 2 4.55579 -2.25768 -6.04705 
2510 1 5.72051 -1.8984 -5.48445 
1834 1 5.23114 -2.48292 7.10436 
304 1 5.67022 -2.37937 -6.20556 
3126 2 6.99416 -2.85297 -6.63947 
2074 1 6.63919 -2.03712 -5.54819 
3087 2 6.69535 -2.11746 -6.65653 
2114 1 -6.56299 -1.66151 -6.28268 
90 1 -6.73211 -0.769386 -6.77888 
3360 2 -5.39597 -1.82782 7.01778 
56 1 -4.94858 -1.1955 -6.19896 
18 1 -4.15975 -2.63312 -6.83353 
1722 1 -4.3205 -0.424219 6.31118 
1928 1 -4.57095 -1.77159 -6.82435 
965 1 -2.75526 -1.72579 -6.22169 
1635 1 -2.74126 -0.872882 -5.76926 
667 1 -2.28336 -2.25351 -7.16004 
3105 2 -1.31564 -1.95064 -6.0873 
1374 1 -0.528584 -1.30735 6.91241 
1828 1 -1.18779 -1.73436 7.08394 
3088 2 0.613854 -0.504586 -6.59344 
3151 2 0.69022 -1.37746 -6.75619 
1745 1 -0.471465 -0.846602 -6.62652 
2520 1 1.45268 -2.74554 -5.88877 
2600 1 2.0665 -0.480029 -6.34927 
919 1 1.57464 -1.20521 -5.89921 
1859 1 2.64575 -1.64865 -6.23714 
388 1 3.80927 -0.818164 -6.7233 
1648 1 3.73696 -1.70878 -6.61907 
2972 2 4.58628 -1.53114 -5.77057 
556 1 5.47783 -0.524306 -5.92157 
453 1 4.88096 -0.896692 -6.85048 
2072 1 5.65136 -1.27119 -6.11471 
2180 1 5.85052 -0.9224 -7.10945 
2840 2 6.85862 -1.3677 -6.54842 
2797 2 6.61668 -0.661431 -6.40744 
2353 1 7.14492 -1.16414 6.80694 
519 1 -6.64195 0.107386 -6.87392 
385 1 -6.31991 0.0997816 -5.82755 
2605 1 -5.62627 -0.411264 -5.66108 
3097 2 -5.50981 -1.0582 -7.14632 
3127 2 -5.57466 -0.242973 -6.97855 
1224 1 -4.91239 -0.160195 -6.07041 
1001 1 -3.16607 -0.925474 -6.50366 
2699 1 -4.23846 -0.825405 -6.44331 
323 1 -2.34722 -1.32557 -6.90461 
964 1 -2.5439 -0.187831 -6.82034 
1112 1 -3.70371 -1.6313 -6.65236 
2081 1 -1.25335 -0.711887 -7.05757 
994 1 -0.84288 0.156525 -6.20055 
3311 2 0.354609 0.24518 -6.4979 
2708 1 1.87656 -1.06216 -6.89021 
1695 1 1.51211 -0.0902669 -6.96952 
2150 1 2.53306 0.318415 -5.9625 
296 1 2.88402 -0.944689 -6.40535 
941 1 1.74726 0.489909 -6.11463 
2960 2 2.48908 0.658353 -6.9898 
1085 1 3.21193 -0.147597 -6.18411 
1034 1 3.47954 1.51046 -6.98724 
970 1 3.90426 0.416127 -6.65288 
1824 1 3.97617 -1.12361 6.79707 
1362 1 4.62611 -0.187802 -6.86737 
1414 1 5.892 0.35351 7.15014 
2380 1 5.56765 -0.220423 -6.75534 
2276 1 5.12483 0.660462 -6.74728 
3135 2 6.51776 0.0532751 -6.2711 
115 1 -7.16008 1.81143 -6.17272 
3007 2 -5.68698 0.582461 -6.6901 
3140 2 -5.89207 1.30373 -6.54369 
2386 1 6.78617 2.26472 -6.95192 
415 1 -4.38422 -0.0200745 -7.10264 
1233 1 -5.00742 1.33119 7.16416 
408 1 -4.73164 0.624827 -6.27635 
1335 1 -4.74595 1.65863 -6.3071 
433 1 -3.68412 -0.139051 -6.38224 
1336 1 -3.90662 0.688666 -6.12221 
3148 2 -3.81122 1.43701 -6.9913 
1446 1 -3.19055 1.15063 -5.51928 
883 1 -1.89664 1.8121 -6.56007 
83 1 -2.94867 0.240843 -6.31515 
343 1 -2.31155 0.747408 -7.03716 
1370 1 -0.758387 1.86989 -6.9951 
1661 1 -1.54737 0.138997 -6.79591 
1265 1 -1.13517 1.77001 -6.00293 
2928 2 0.21476 0.958411 -6.36499 
3078 2 -0.0535233 1.78566 -6.25472 
583 1 1.37431 1.00625 -6.79701 
1817 1 0.997978 2.02615 -6.55289 
110 1 1.55479 1.32133 -5.85988 
1368 1 1.60556 2.26492 -5.69251 
3459 2 2.36612 1.57636 -6.87611 
3393 2 2.12083 2.37247 -6.79636 
1876 1 3.38695 1.02683 -6.27379 
312 1 3.02526 1.85938 -6.0223 
1176 1 2.4082 1.21099 -5.79893 
366 1 4.52008 1.10814 -6.37476 
2068 1 4.14768 1.99295 -6.4629 
795 1 5.17856 1.9842 -6.4004 
404 1 5.59032 1.39809 -6.96389 
3038 2 6.17557 0.843307 -6.22467 
2151 1 6.31907 1.53522 -7.08243 
3060 2 6.16652 1.55884 -5.82634 
1185 1 -7.02706 1.18391 -6.92497 
3465 2 -6.14502 2.10727 -6.50664 
2736 2 -6.18582 3.0064 -6.35062 
1232 1 -5.06338 2.26341 -6.72994 
822 1 -5.05888 3.05245 -6.29314 
1353 1 -3.81692 1.60084 -5.94746 
2275 1 -2.68482 1.92002 -6.66248 
1517 1 -2.02306 2.63668 -6.566 
1772 1 -2.84004 1.23422 -6.493 
2576 1 -3.161 2.40739 -6.16069 
1255 1 -1.14493 2.57693 -6.42225 
3444 2 0.0530613 2.65943 -6.24852 
2813 2 -0.0651973 3.36111 -6.2576 
2285 1 -0.0693505 3.05152 7.05783 
2463 1 1.15394 2.83016 -6.0247 
693 1 0.867384 3.61691 -6.32162 
3417 2 1.92971 3.14311 -6.59942 
1113 1 3.08832 3.63138 -6.55056 
1068 1 3.49266 2.44744 -6.66589 
2086 1 3.72769 3.27058 -6.1994 
805 1 4.57287 2.57252 -6.09182 
284 1 5.17774 2.96821 -6.52986 
339 1 5.82725 2.35731 -6.79625 
2061 1 -7.19267 3.19026 -6.87689 
2597 1 6.15326 3.23687 -6.79093 
2707 1 7.01008 3.41184 -5.82674 
2685 1 7.08591 2.73087 -6.24826 
3238 2 -6.49247 3.82463 -6.26154 
2519 1 -6.10372 3.74709 6.94525 
536 1 -5.30195 3.13738 -7.12136 
829 1 -5.47269 4.0215 -6.99568 
2783 2 -4.19645 2.98504 -7.03406 
3408 2 -4.03421 3.69514 -6.89415 
2318 1 -3.0102 4.26441 -6.14492 
353 1 -2.5226 3.64872 -6.55574 
1394 1 -2.92463 2.88007 -6.86539 
1881 1 -1.86565 4.20445 -6.20491 
920 1 -1.54373 3.41145 -6.43595 
175 1 -0.966635 4.03451 -6.73694 
2401 1 -0.982854 4.58926 6.61169 
1933 1 -0.266738 4.14959 -7.13579 
597 1 1.26001 5.34268 7.12518 
1773 1 0.629199 3.84089 -7.15986 
3478 2 1.85212 3.9391 -6.50602 
3466 2 1.68131 4.55493 -6.30341 
430 1 0.60296 4.69897 -7.08522 
839 1 2.63281 5.11344 -6.66722 
2483 1 4.30412 3.94152 -5.72276 
3551 2 4.11985 4.08966 -6.84767 
2530 1 4.85978 3.68354 -6.33841 
862 1 5.41006 3.6251 -7.12097 
760 1 5.86093 4.29493 -6.57255 
2594 1 7.05369 4.76476 -6.97368 
213 1 6.68209 3.95283 -6.65584 
3045 2 -6.45334 4.56376 -6.12478 
292 1 7.16743 5.38563 7.01134 
2045 1 -5.61753 4.69348 -6.50788 
1845 1 -5.39063 4.8244 -5.6417 
3411 2 -4.39448 4.28536 -6.63376 
3471 2 -4.50534 5.11855 -6.41879 
912 1 -2.61749 4.88596 -6.10974 
1012 1 -3.02071 4.08632 -7.13885 
223 1 -3.31922 4.9347 -6.77335 
2524 1 -1.47922 5.00702 -6.19674 
225 1 -0.715256 5.06117 -6.95768 
1767 1 -0.0493058 4.67532 -6.38313 
1889 1 0.609153 5.41078 -6.48074 
1924 1 0.578415 5.12302 -5.57839 
3138 2 1.53005 5.26768 -6.16805 
2675 1 0.813899 6.18267 -6.80853 
1338 1 1.34224 5.28412 6.24832 
215 1 1.80724 5.92577 -7.16568 
703 1 3.04932 4.17408 -6.02258 
474 1 2.67704 5.53801 6.99754 
96 1 2.60449 5.93831 -6.42175 
3223 2 3.70488 4.70111 -6.98105 
3215 2 3.89076 5.40478 -6.72632 
2711 1 5.04617 4.52292 -6.30889 
2678 1 4.84091 5.67141 -6.23406 
1970 1 4.95387 5.13565 -7.09118 
1896 1 4.85723 6.06711 -6.92006 
1321 1 -7.13803 4.88489 6.37894 
2142 1 5.52659 5.31268 -6.52243 
1410 1 6.63566 5.94577 -6.53458 
1667 1 6.40437 5.01516 -6.31243 
1616 1 -6.61683 -7.07322 -6.43874 
491 1 -5.5988 6.24444 -6.9548 
1727 1 -6.87607 5.84343 -6.78041 
297 1 -6.25308 5.25703 -6.85266 
3463 2 -4.6545 5.83546 -6.39515 
3150 2 -4.58133 6.64807 -6.15906 
2342 1 -3.46519 5.9695 -6.72153 
3268 2 -2.51224 6.10086 -7.06915 
3454 2 -2.22887 5.42793 -6.86991 
601 1 -3.12102 5.83038 -6.01305 
245 1 -0.656655 6.58509 -6.38096 
1308 1 -1.73299 6.16446 -6.15543 
1346 1 -1.27534 5.71106 -6.66925 
1893 1 -1.11919 6.03794 6.96674 
1521 1 0.526117 6.89359 -6.54991 
1639 1 -0.379349 5.83592 -6.59892 
2630 1 -0.0131153 -7.1322 -5.86562 
586 1 0.247813 6.1493 -5.9525 
2899 2 1.27606 6.75248 -5.75054 
2024 1 1.61322 6.99107 -6.80432 
255 1 2.22431 6.56632 -6.82443 
2212 1 3.01809 6.64061 6.83175 
3569 2 3.70528 6.76584 -6.34462 
2790 2 3.5826 6.09364 -6.68537 
1311 1 4.85235 6.8956 -6.46914 
302 1 5.37098 6.36648 -6.12251 
3539 2 5.8247 6.94915 -6.98497 
522 1 7.15143 6.76418 -6.89164 
2200 1 6.7018 7.11926 6.83635 
13 1 6.45971 6.69133 -5.99868 
695 1 -6.16577 -5.89608 -5.60041 
2462 1 -5.57121 -6.09426 -4.88432 
1184 1 -5.20288 7.03122 -4.9902 
833 1 -3.55573 -6.93637 -5.68264 
278 1 -4.81609 -6.86915 -4.68538 
2176 1 -4.26147 -5.48154 -5.09881 
1149 1 -4.16502 -6.34884 -5.1064 
197 1 -2.59885 -6.97985 -5.44707 
1567 1 -1.61156 -6.47271 -5.75424 
1435 1 -2.1201 -6.74318 -4.66612 
1643 1 -2.32494 -6.11316 -5.27306 
3322 2 -1.18839 -6.23593 -4.79261 
3594 2 -0.950728 -6.93834 -4.94705 
1093 1 0.339967 6.86311 -5.13989 
1107 1 0.993421 -6.92122 -4.4179 
2491 1 0.482185 -6.15833 -4.44019 
2978 2 1.31396 -6.88564 -5.6188 
3128 2 1.03714 -5.92206 -5.52484 
2096 1 2.43314 -6.0497 -4.81931 
949 1 1.96688 -6.91792 -4.69634 
1211 1 2.59355 -7.10225 -5.27041 
799 1 1.73163 6.76208 -4.22441 
1882 1 4.57675 -7.17344 -5.60065 
1442 1 3.90426 -6.84759 -4.7766 
1985 1 5.55504 -6.97102 -5.85286 
924 1 4.83754 -6.4912 -5.84028 
893 1 5.56548 -5.94444 -5.57335 
589 1 6.04725 -6.43231 -5.02141 
3487 2 -7.10118 -6.97462 -5.30083 
610 1 6.41974 7.07203 -5.15554 
1263 1 -6.63068 -5.30785 -6.11642 
1851 1 -6.07555 -5.56955 -4.56273 
316 1 -6.49126 -5.08867 -5.21819 
3520 2 -5.05127 -5.99735 -5.84473 
3416 2 -5.20267 -5.2734 -5.76463 
472 1 -4.71555 -5.73171 -4.31215 
959 1 -3.67574 -4.95302 -5.14464 
2516 1 -3.95873 -5.40178 -5.94808 
2002 1 -3.57542 -6.04341 -5.59784 
1506 1 -3.06706 -5.58576 -5.07481 
897 1 -2.04964 -5.34818 -5.47522 
3480 2 -1.38957 -5.42411 -4.69407 
1127 1 -0.315045 -5.10854 -5.63544 
2626 1 -0.661385 -6.26684 -5.69206 
1931 1 -0.167321 -5.634 -4.96074 
1837 1 2.89254 -5.29138 -4.83479 
2826 2 0.928965 -5.17067 -5.24103 
3068 2 0.650952 -4.39931 -5.10012 
1385 1 2.31543 -6.1484 -5.63168 
811 1 3.25137 -6.3057 -4.86474 
1234 1 2.6496 -4.40641 -4.63637 
2933 2 2.94625 -4.5482 -5.71414 
1945 1 3.55299 -5.23777 -4.23679 
2469 1 4.13655 -6.27198 -5.36632 
1425 1 3.92382 -5.49947 -5.02298 
1416 1 4.39007 -4.84204 -5.62738 
779 1 4.83044 -5.49093 -5.56585 
2828 2 -7.16256 -6.09899 -5.27143 
3010 2 6.79546 -5.27334 -5.04419 
72 1 5.77041 -5.41137 -4.93583 
2015 1 6.07491 -5.40157 -5.92902 
572 1 -6.55574 -4.26515 -5.55574 
2670 1 6.89448 -3.90195 -5.97727 
3325 2 -5.50976 -4.6803 -5.45862 
2912 2 -5.45222 -3.86849 -5.38308 
1671 1 -3.62804 -3.51826 -5.11473 
1979 1 -4.32675 -3.99196 -5.0485 
977 1 -4.15032 -4.51694 -5.63901 
3041 2 -3.12909 -4.51329 -6.14666 
386 1 -2.40915 -4.61288 -5.36556 
1629 1 -2.33077 -3.7789 -5.00473 
484 1 -1.48364 -3.98403 -5.41674 
2105 1 -0.366291 -3.78121 -4.23982 
2263 1 -0.567064 -4.02102 -5.10297 
3227 2 0.505846 -2.83735 -4.91722 
2768 2 0.626701 -3.5997 -4.9914 
2537 1 2.10839 -5.32467 -5.50356 
1313 1 1.8453 -3.88329 -5.43535 
19 1 1.95049 -4.56338 -4.93622 
3249 2 2.86846 -3.69304 -5.81592 
26 1 4.16676 -3.66915 -5.17636 
2558 1 3.75635 -4.43922 -4.96794 
2539 1 4.91882 -4.12613 -5.37744 
452 1 5.54518 -4.73526 -5.40251 
1322 1 6.0578 -3.95541 -5.57978 
2727 1 7.09276 -4.9115 -6.07811 
2101 1 6.60752 -2.95139 -5.60195 
3173 2 6.62998 -3.79266 -4.78665 
2612 1 -6.92235 -3.06553 -4.90014 
2737 2 -5.71042 -3.1437 -5.13568 
1006 1 -6.36416 -2.46527 -4.28674 
2890 2 -5.76932 -2.40027 -5.33987 
2480 1 -4.51795 -3.05064 -5.51324 
2869 2 -3.35389 -3.72511 -5.98935 
1285 1 -3.6762 -2.72756 -4.73426 
2844 2 -3.50368 -2.93438 -5.90179 
2262 1 -2.38602 -3.23278 -5.77684 
594 1 -2.93355 -2.55754 -5.09318 
1087 1 -0.945438 -3.24626 -5.18309 
527 1 -0.387885 -2.5279 -5.49932 
858 1 -1.78478 -2.95157 -5.34626 
3430 2 0.352021 -2.2244 -4.52589 
922 1 -0.367471 -3.38741 -5.73168 
2013 1 -0.45811 -1.74027 -6.71124 
502 1 0.640538 -2.51711 -5.86961 
840 1 1.591 -3.24365 -5.12183 
3014 2 2.61016 -2.98446 -5.76366 
2830 2 2.38053 -2.46644 -5.39665 
1415 1 4.49766 -2.74074 -4.92425 
850 1 3.74837 -2.98732 -5.7948 
27 1 3.07159 -2.01716 -4.22814 
1215 1 3.35122 -3.45745 -4.63811 
85 1 3.55923 -2.71438 -4.88662 
346 1 5.1981 -3.54009 -4.9841 
1987 1 6.31913 -1.24138 -5.43139 
873 1 5.35581 -2.53002 -5.01324 
2721 1 -6.74679 -2.50523 -5.73823 
148 1 -7.14387 -1.32586 -5.54503 
41 1 -5.69661 -1.81103 -6.23705 
2360 1 -6.12696 -0.933626 -6.06309 
2974 2 -6.08806 -1.83369 -5.07937 
2993 2 -6.33951 -1.15034 -4.85565 
874 1 -4.87854 -2.0559 -5.36999 
1781 1 -5.08251 -1.04673 -5.40591 
1316 1 -5.0485 -1.25877 -4.6318 
3543 2 -3.71852 -2.16047 -5.80451 
3256 2 -3.77603 -1.40619 -5.54937 
913 1 -2.36769 -2.02532 -5.5979 
2465 1 -2.91437 -1.61958 -5.09302 
3200 2 -1.54017 -1.08499 -6.21607 
460 1 -1.71305 -1.71741 -5.11069 
1195 1 -1.16932 -1.06467 -4.9687 
154 1 -0.511443 -1.6467 -5.46439 
400 1 0.181521 -1.76639 -5.97301 
3354 2 0.0579353 -1.50243 -4.64319 
1489 1 -0.483262 -0.736468 -5.74174 
1644 1 1.44815 -2.26964 -5.01457 
1897 1 1.04289 -1.67821 -5.45071 
2390 1 0.421445 -1.04585 -5.54009 
3356 2 2.44228 -1.72999 -5.00467 
3557 2 2.39618 -1.00133 -5.33288 
40 1 3.53874 -1.84322 -5.25959 
656 1 3.41953 -1.14161 -5.80418 
2995 2 4.35653 -0.668277 -5.70857 
1527 1 4.29199 -1.89826 -4.80228 
1911 1 3.52603 -0.987291 -4.70481 
1830 1 4.35061 -0.816443 -4.71158 
734 1 5.33098 -1.14436 -4.98748 
2617 1 -6.98623 -0.403241 -5.68163 
1927 1 7.18454 0.492112 -5.1805 
1369 1 6.92965 -0.304682 -4.92033 
1483 1 6.95856 -1.29723 -4.69055 
3267 2 -6.27354 -0.3893 -4.58832 
3186 2 -6.38738 0.34368 -4.56523 
668 1 -6.22623 1.08812 -5.62976 
670 1 -5.495 0.538907 -5.29899 
1953 1 -5.3062 -0.216706 -4.82339 
3144 2 -4.11943 -0.591984 -5.37269 
174 1 -2.96082 -0.450966 -5.04355 
2589 1 -2.2687 -1.11336 -5.08494 
596 1 -3.30879 0.0562078 -5.5867 
640 1 -2.36024 0.129976 -4.53374 
2796 2 -1.86742 -0.419741 -5.86259 
1623 1 -0.922279 0.945304 -5.83892 
2712 1 0.0705709 -0.0653235 -5.60544 
1971 1 -0.934345 0.102355 -5.26454 
308 1 0.708078 0.0427576 -5.04935 
76 1 1.09054 -0.612871 -5.56641 
3383 2 1.91042 0.264237 -4.97688 
3449 2 2.03211 -0.455817 -4.83653 
130 1 3.20286 -0.352854 -5.16597 
891 1 3.58181 -0.0974141 -4.51597 
3317 2 4.29228 0.0386265 -5.77246 
2848 2 4.2134 0.576306 -5.21935 
1788 1 5.40518 0.533743 -5.2506 
167 1 2.84072 -0.0488302 -4.3107 
1472 1 5.2016 -0.238648 -5.0053 
499 1 6.16981 -0.258128 -5.3735 
1207 1 -6.98809 1.29603 -5.42221 
34 1 6.36044 0.682916 -5.09759 
817 1 -6.15391 1.86189 -5.35658 
1607 1 -7.00527 0.645915 -6.11683 
1514 1 -5.17641 1.45185 -5.61959 
2037 1 -5.45673 1.43398 -4.84377 
2861 2 -4.25439 0.125449 -5.12153 
1512 1 -3.39195 2.0706 -5.45834 
3062 2 -4.37064 0.896745 -5.15414 
2466 1 -3.18049 0.594947 -4.9595 
2846 2 -2.12702 1.05113 -5.70815 
1198 1 -2.37321 1.02598 -4.48822 
2939 2 -2.09952 0.219295 -5.62249 
287 1 -1.63236 0.946936 -6.63367 
159 1 -1.32724 1.20557 -5.00608 
1894 1 -1.50648 0.560128 -4.63953 
603 1 -0.356335 0.797015 -5.18376 
2673 1 0.797128 0.994502 -5.13189 
46 1 -0.870445 1.91869 -5.16839 
2730 1 1.08887 0.396316 -5.72796 
3241 2 1.65476 1.73315 -4.70968 
3443 2 1.96241 1.04521 -4.73154 
1524 1 3.10022 0.420954 -5.45088 
851 1 2.83847 1.41406 -4.99709 
3364 2 3.91248 1.1991 -5.35178 
3388 2 3.80525 1.98593 -5.27405 
1883 1 5.23837 0.313348 -6.03279 
50 1 5.53266 1.47963 -4.9278 
723 1 6.87338 1.88052 -5.1994 
1282 1 6.5875 1.44001 -4.66663 
1331 1 -6.95482 2.53333 -5.41107 
2578 1 -5.61831 2.28062 -4.60437 
131 1 -6.72868 3.45245 -5.12636 
1238 1 -5.32373 2.32371 -5.74464 
3456 2 -4.52817 2.40913 -4.82191 
2560 1 -4.34872 2.44129 -5.90988 
2845 2 -4.29041 1.6664 -4.97357 
803 1 -3.41905 3.14163 -5.24756 
3117 2 -2.18279 1.8289 -5.55308 
2945 2 -2.22973 2.61607 -5.45986 
330 1 -1.05446 2.79116 -5.62565 
1484 1 -1.92372 1.67947 -4.33057 
673 1 -0.239289 2.56017 -5.10673 
1257 1 -1.44539 2.41612 -4.69524 
620 1 0.658721 2.71532 -5.3031 
823 1 0.778385 1.71679 -5.64067 
1978 1 1.91415 3.01288 -5.33043 
23 1 2.70015 2.4142 -4.51248 
2575 1 2.46252 2.38957 -5.47127 
3433 2 3.7034 2.83309 -5.22586 
194 1 4.93134 1.39768 -5.74018 
2147 1 5.87683 2.18243 -4.53975 
3298 2 5.91173 3.05774 -5.70258 
2433 1 4.71609 2.06913 -4.38122 
82 1 5.04273 2.17761 -5.14421 
1684 1 6.72339 3.561 -5.03319 
3414 2 6.06706 2.31267 -5.79569 
2317 1 6.25711 2.94896 -3.93336 
1229 1 -5.79183 4.0437 -5.23732 
2297 1 -6.18634 4.50136 -4.55966 
1691 1 -4.09739 3.21735 -5.7899 
35 1 -5.21242 3.26712 -5.45697 
2885 2 -4.67062 3.19929 -4.65659 
59 1 -3.77233 4.02173 -5.7156 
1344 1 -3.30488 3.26414 -6.15822 
992 1 -3.76458 3.88686 -4.72053 
2977 2 -2.42256 3.44745 -5.47368 
2865 2 -2.66564 4.25461 -5.15767 
686 1 -1.38966 3.70271 -5.18398 
1638 1 -0.866152 3.12807 -4.79088 
3378 2 -0.38142 3.65262 -5.75855 
867 1 0.0856282 3.47858 -4.85459 
3392 2 -0.641269 4.32813 -5.62626 
1505 1 0.309942 4.34138 -5.11723 
324 1 0.605761 4.46216 -6.10031 
2542 1 0.811938 3.51992 -5.48592 
371 1 1.41763 4.11238 -5.336 
1677 1 2.77921 3.00513 -5.92743 
1066 1 2.3177 3.67898 -5.52779 
2814 2 3.22642 4.08279 -4.92263 
1923 1 2.42437 3.28176 -4.55436 
377 1 4.70394 3.13518 -5.34471 
16 1 3.65817 4.77209 -5.773 
2894 2 3.43671 3.39841 -4.81818 
221 1 4.37534 4.47332 -5.0975 
1513 1 4.59744 3.08847 -4.30182 
2917 2 5.68256 3.82212 -5.52247 
2927 2 5.55523 4.60724 -5.30294 
1200 1 6.78325 4.2101 -5.82966 
1169 1 -6.90752 4.35209 -5.09766 
3147 2 -6.78324 5.10765 -5.93083 
29 1 -6.10434 5.293 -4.99699 
1899 1 -7.11271 5.26017 -4.72045 
443 1 -5.22764 3.85903 -6.01836 
561 1 -4.38608 4.27792 -5.27067 
942 1 -5.39576 5.72608 -5.4313 
587 1 -4.52022 5.23427 -5.30042 
507 1 -3.63668 4.96277 -5.82679 
1481 1 -4.12916 5.87004 -4.63137 
754 1 -3.99682 4.90983 -4.71687 
3458 2 -2.95371 4.93771 -4.95278 
2988 2 -2.7767 5.76442 -4.82066 
448 1 -0.873221 4.13746 -4.51693 
341 1 -2.14795 5.55367 -5.68985 
2603 1 -1.76669 4.72454 -5.42495 
3207 2 -0.63463 5.09848 -5.59389 
2208 1 0.201017 5.49146 -4.62232 
301 1 1.31154 5.12939 -4.88249 
84 1 1.96276 4.63357 -4.97971 
1261 1 2.2248 5.09268 -4.1252 
1848 1 0.609401 6.01838 -5.07754 
2392 1 0.00927316 6.24926 -4.49847 
899 1 2.48281 4.60026 -5.71666 
2379 1 3.04932 5.34519 -5.82036 
1515 1 4.17211 5.25579 -5.05463 
2088 1 4.41313 4.94653 -6.01329 
3257 2 5.22346 5.32819 -5.22581 
2971 2 5.3155 6.1017 -5.04527 
440 1 6.69327 4.3939 -4.80735 
1341 1 6.49332 5.28164 -5.35703 
558 1 -6.3008 6.50387 -6.56385 
3330 2 -6.92825 5.85965 -5.80811 
1872 1 -5.80384 5.79162 -6.15574 
698 1 -6.11976 -7.03919 -4.65788 
2473 1 -6.01692 6.45297 -5.06209 
2033 1 -5.70855 6.71683 -5.90632 
1733 1 -4.70775 6.2132 -5.1109 
1235 1 -4.10239 6.9744 -5.10649 
1391 1 -3.85918 5.86271 -5.48426 
2635 1 -2.35886 6.34802 -5.61347 
2446 1 -3.31452 6.73565 -5.89762 
3265 2 -3.08454 6.52768 -4.79652 
1499 1 -1.81566 6.71921 -4.99345 
3455 2 -0.836676 6.70278 -5.08749 
3018 2 -0.699758 5.91107 -5.45889 
2669 1 0.118337 7.1164 -4.32035 
172 1 -0.572792 5.31142 -4.3858 
2831 2 1.6081 6.0491 -6.06422 
2429 1 1.0751 6.53073 -4.60131 
696 1 2.82945 6.20224 -5.54007 
849 1 2.29407 5.38725 -5.35693 
1935 1 2.0955 6.57413 -5.12074 
2305 1 3.85465 5.68643 -5.50097 
798 1 3.50881 7.07125 -5.2728 
244 1 4.41311 5.84842 -4.39596 
189 1 4.53335 6.34942 -5.81188 
2926 2 5.39175 6.8905 -4.91116 
2747 2 -6.87531 6.62355 -5.57505 
1871 1 6.49484 6.63286 -4.44426 
1965 1 5.90353 5.8891 -6.03707 
1399 1 6.42236 6.12826 -5.33207 
2533 1 -6.64039 -6.25238 -4.3319 
1013 1 -6.96709 -5.91691 -3.60306 
3228 2 -5.49238 -7.1249 -3.86289 
3375 2 -5.6184 -6.28141 -3.75633 
1406 1 -4.35774 -6.56263 -4.08132 
2248 1 -4.44442 6.82247 -4.30543 
427 1 -2.3184 -5.89006 -4.28788 
3413 2 -3.44726 -6.35959 -4.35147 
2835 2 -3.19609 -7.11782 -4.59305 
2496 1 -2.02349 -6.53895 -3.79656 
1327 1 -1.2547 7.1308 -3.93526 
1585 1 -1.18392 -6.39471 -3.54534 
486 1 -0.340402 -6.67188 -4.00918 
15 1 1.19601 -5.60033 -4.03489 
3056 2 0.672902 7.06274 -3.35919 
224 1 1.50026 -6.19776 -4.53656 
2238 1 1.61169 -6.79255 -3.82846 
3303 2 2.91921 6.89258 -4.36648 
2918 2 2.77699 -6.94399 -3.93869 
2136 1 4.27411 6.68798 -4.25775 
2566 1 3.77587 -6.03282 -4.1526 
1019 1 4.517 -6.06071 -3.42533 
3290 2 5.04158 -6.94385 -4.58416 
2825 2 4.99675 -6.22239 -4.55404 
997 1 6.11669 -6.07719 -4.26265 
2703 1 4.07173 -6.87859 -3.78516 
1000 1 6.10532 -6.95964 -4.1192 
1461 1 -7.08247 7.11531 -4.17625 
2507 1 -6.86943 -5.19421 -4.13297 
844 1 -6.34544 -4.60556 -4.50865 
523 1 -4.59693 -4.75393 -4.78633 
1994 1 -5.47675 -5.08928 -4.48531 
1187 1 -4.73451 -5.73513 -3.31708 
843 1 -4.20979 -5.1174 -2.96636 
3562 2 -3.56581 -5.64714 -4.05019 
3536 2 -3.8807 -4.83799 -4.02431 
314 1 -2.80334 -5.11213 -3.2677 
3285 2 -1.5407 -4.73587 -4.42256 
127 1 -1.73155 -5.62735 -3.626 
1846 1 -1.93515 -4.87765 -3.40284 
2038 1 -0.68297 -4.98978 -3.71237 
2052 1 -0.553372 -5.82384 -4.07666 
1799 1 0.212969 -5.32 -4.29047 
1538 1 1.86993 -5.2825 -4.63524 
2632 1 1.24723 -5.07069 -3.42204 
1683 1 1.37133 -4.54187 -2.83027 
1130 1 1.48402 -5.99293 -3.37325 
3379 2 2.58019 -6.20884 -3.83699 
3230 2 2.43568 -5.44288 -3.64272 
3244 2 4.83561 -4.73955 -4.40338 
701 1 3.54359 -5.27047 -3.41113 
3340 2 4.6615 -5.52591 -4.47773 
451 1 5.72811 -4.22336 -4.62247 
1364 1 5.93845 -4.95713 -4.10207 
2659 1 6.81568 -4.73014 -3.7263 
655 1 6.74655 -5.53994 -4.16023 
98 1 6.80901 -6.54324 -4.32153 
1031 1 -6.84313 -3.91776 -3.92696 
1444 1 -6.47186 -3.76965 -4.74137 
1182 1 -5.6742 -4.23037 -4.19982 
1449 1 -6.11197 -3.26245 -4.14391 
2674 1 -4.82385 -4.71018 -3.80975 
1144 1 -3.25223 -4.38409 -4.85932 
1361 1 -4.94784 -3.99987 -4.22749 
3376 2 -3.73689 -4.13401 -3.80402 
3083 2 -3.886 -3.35894 -3.86267 
1086 1 -2.74434 -5.08224 -4.32405 
2044 1 -2.72488 -3.99976 -4.1628 
3198 2 -1.54858 -3.97341 -4.09991 
2058 1 -0.352996 -4.73232 -4.67282 
1552 1 1.08448 -3.94326 -3.3607 
1422 1 0.0421102 -3.17688 -3.70639 
1028 1 0.312587 -4.31292 -3.94042 
1160 1 1.28889 -4.59256 -4.09928 
1582 1 1.68188 -3.92682 -2.27366 
1611 1 1.39446 -3.8365 -4.43575 
3015 2 2.3213 -4.68033 -3.48854 
1967 1 2.27433 -3.56273 -4.56205 
927 1 3.34579 -4.44183 -3.26374 
2857 2 4.37468 -4.27743 -4.08259 
3353 2 4.27807 -3.51359 -4.08132 
1575 1 3.27896 -4.27697 -4.10727 
535 1 5.21001 -5.08205 -3.08459 
1372 1 5.41286 -3.51733 -4.21044 
3080 2 6.99318 -4.53789 -4.91031 
1595 1 6.31446 -4.17058 -3.7545 
721 1 5.87967 -3.14025 -3.57167 
1151 1 -5.7178 -2.31096 -3.72412 
2132 1 -7.18215 -2.18834 -4.87143 
2351 1 -6.99837 -2.83054 -3.96165 
1140 1 -4.57679 -3.14387 -4.7049 
1392 1 -5.07834 -2.85884 -4.1946 
3229 2 -4.29622 -2.77749 -3.53983 
2241 1 -3.37895 -1.98185 -4.46422 
2511 1 -2.58147 -3.25895 -3.38905 
228 1 -2.83332 -3.25884 -4.62463 
1023 1 -3.12228 -2.54195 -3.83705 
2916 2 -1.7031 -3.09374 -4.24642 
180 1 -0.489131 -2.96461 -4.32711 
2139 1 -1.03101 -2.43642 -5.02706 
2766 2 -2.11398 -2.37769 -4.22929 
2400 1 -1.04644 -2.36927 -3.62045 
2260 1 -0.162548 -2.33996 -3.66384 
1239 1 0.597512 -2.44256 -3.25275 
749 1 0.923765 -3.17187 -3.8073 
2901 2 2.07307 -3.00079 -3.18527 
984 1 1.62464 -2.99424 -4.32031 
566 1 2.63711 -2.92369 -4.39515 
1653 1 2.83847 -1.95185 -3.35556 
1237 1 1.9888 -2.08079 -4.10688 
169 1 3.07609 -3.58384 -3.74851 
3134 2 4.1292 -2.90517 -3.82294 
1841 1 5.23262 -2.50273 -4.08153 
1226 1 5.55954 -4.29661 -3.56205 
960 1 5.37776 -1.7388 -3.33929 
1340 1 4.85363 -1.61423 -4.31482 
1428 1 6.8352 -3.38515 -3.4851 
2858 2 6.39304 -3.12482 -4.47904 
3116 2 6.24036 -2.20181 -4.49385 
1548 1 6.61907 -2.65989 -3.03189 
2126 1 -7.18089 -1.99735 -3.90613 
1458 1 -5.69357 -1.2793 -3.79682 
2157 1 -5.22028 -1.92435 -4.24092 
2302 1 -4.3361 -2.18134 -4.74617 
3447 2 -4.37651 -1.98205 -3.64151 
262 1 -3.29862 -1.51925 -3.81873 
412 1 -4.11105 -1.33791 -4.47607 
2108 1 -3.34521 -0.914399 -4.43733 
2748 2 -2.14644 -1.59486 -4.13371 
2789 2 -2.42494 -0.971771 -3.81406 
1491 1 -0.937494 -1.78104 -4.43632 
954 1 -1.18029 -0.888277 -3.96877 
969 1 -1.84786 -0.622555 -2.93241 
393 1 0.078302 -0.762502 -3.17183 
904 1 -0.542099 -1.33972 -3.68088 
3585 2 -0.219091 -0.646566 -4.57773 
2237 1 0.450302 -1.52215 -3.28765 
2411 1 1.22573 -2.39018 -3.89166 
75 1 1.06259 -1.50052 -3.95318 
1300 1 2.83259 -0.986605 -4.1686 
482 1 2.04791 -1.31419 -3.92289 
1890 1 2.70444 -1.09037 -3.09544 
2298 1 1.37345 -1.36681 -4.6526 
2914 2 4.07488 -2.06146 -3.73402 
3483 2 3.88555 -1.28871 -3.61974 
1325 1 4.97748 -0.995095 -3.71655 
2856 2 6.068 -1.30501 -4.21914 
1343 1 -7.13173 -1.15627 -3.98006 
1999 1 6.74978 -0.0267528 -3.27431 
2902 2 5.91101 -0.567882 -4.15675 
2311 1 -6.30216 -1.68244 -4.02657 
2054 1 -6.59116 -0.71845 -3.62776 
1568 1 -6.95443 0.407451 -3.50089 
2448 1 -5.51073 -0.293275 -3.86816 
1910 1 -5.13906 0.469502 -4.31897 
1790 1 -4.65704 -0.503836 -4.21246 
1579 1 -3.76982 -0.544465 -3.90352 
2436 1 -4.25292 0.258784 -4.05709 
2508 1 -3.26651 0.0509078 -4.36445 
3490 2 -2.50413 -0.100984 -3.56889 
3588 2 -2.52117 0.559593 -3.2906 
2609 1 -1.64949 -0.373576 -4.63358 
1441 1 -0.975534 -0.387435 -3.23676 
3500 2 -0.346087 0.0288028 -4.21649 
1777 1 -0.317799 0.132426 -2.94485 
876 1 0.724518 -0.437217 -3.82545 
1266 1 0.342156 0.308002 -3.4393 
1065 1 0.622552 0.627598 -4.34603 
2187 1 0.916426 -0.778579 -4.72547 
665 1 1.69122 -0.583118 -3.87115 
414 1 2.21765 0.518023 -3.8534 
3305 2 3.6926 -0.562413 -3.47673 
3394 2 3.39895 0.164299 -3.33846 
2819 2 5.91562 0.204413 -4.24823 
1328 1 4.59653 -0.309571 -4.23835 
504 1 4.76999 0.242267 -3.3718 
802 1 7.08784 -0.172951 -4.08663 
2584 1 6.8908 0.69386 -4.32067 
1807 1 6.308 0.616968 -3.00955 
3263 2 -6.45883 1.07257 -4.42922 
1078 1 6.90481 1.08815 -3.49714 
2010 1 -5.68383 0.828828 -3.64262 
1725 1 -5.40606 1.58138 -4.09152 
521 1 -4.68332 1.13216 -3.99205 
928 1 -6.22356 0.0439358 -3.27092 
2383 1 -5.93714 1.87996 -3.45643 
697 1 -3.53862 0.905196 -4.07917 
1809 1 -4.07654 1.44179 -3.40258 
3120 2 -2.808 1.29022 -3.42606 
1367 1 -1.6559 0.919855 -3.88582 
3372 2 -2.8326 2.18228 -3.40514 
1064 1 -1.38568 0.0724381 -3.86743 
1812 1 -1.53431 1.65777 -3.29996 
3555 2 -0.456729 0.882838 -4.11481 
2950 2 -0.506247 1.61116 -3.95762 
1562 1 0.661095 1.48532 -4.26297 
1432 1 1.29471 1.23319 -3.63872 
1375 1 1.68373 1.84475 -3.43794 
295 1 1.32982 0.308403 -3.80651 
2407 1 3.03078 0.761557 -4.43794 
785 1 2.21073 1.18786 -3.48956 
2460 1 1.93663 0.594546 -3.00233 
2021 1 4.69437 0.420844 -4.26937 
1092 1 4.8914 1.15933 -4.64455 
613 1 3.94237 0.778117 -4.16809 
925 1 4.48046 1.10486 -3.46149 
2908 2 3.28163 0.941404 -3.1162 
3209 2 5.72522 0.837228 -3.84487 
3369 2 5.47426 1.56941 -3.72556 
1913 1 6.58536 2.05012 -3.97136 
1853 1 7.09426 1.85785 -3.3634 
3260 2 -6.72644 1.75532 -4.26087 
3033 2 -6.70794 2.46896 -4.29287 
1060 1 -6.16295 2.72709 -3.2891 
2396 1 -5.94358 2.78887 -5.20784 
731 1 -4.79111 2.19198 -3.74158 
1880 1 -5.53239 2.79501 -3.94926 
1148 1 -3.78215 2.09876 -3.866 
286 1 -3.86196 3.04167 -4.03023 
2490 1 -2.52904 2.31852 -4.35065 
2077 1 -3.49553 2.6779 -4.7009 
2395 1 -3.20714 1.78233 -4.54995 