ITEM: TIMESTEP
36500
ITEM: NUMBER OF ATOMS
3594
ITEM: BOX BOUNDS pp pp pp
-7.1909288727211660e+00 7.1909288727211660e+00
-7.1909288727211660e+00 7.1909288727211660e+00
-7.1909288727211660e+00 7.1909288727211660e+00
ITEM: ATOMS id type x y z 
1345 1 -6.7427 -6.17125 -6.42011 
2582 1 -5.75469 -5.94096 -6.67299 
3366 2 -6.754 -6.36338 6.84213 
3477 2 -4.78154 -7.03225 -5.95918 
233 1 -5.63026 -6.90279 -6.73034 
427 1 -3.7217 7.14756 -5.79397 
2546 1 -3.77917 -6.34018 -7.10435 
959 1 -3.85843 -6.4659 -6.1042 
2944 2 -2.7697 -7.05634 -6.59032 
3574 2 -2.79659 -6.31916 -6.39984 
741 1 -1.72226 -6.72809 7.1665 
3368 2 -0.921617 -6.1835 -7.02511 
1356 1 -1.58047 -6.77361 -6.3576 
1521 1 0.172727 -6.53184 -6.49486 
1634 1 0.7651 -5.83068 -6.72852 
1663 1 0.585313 7.05307 -6.64235 
1734 1 1.95454 -6.06554 -6.45136 
498 1 2.3149 -5.11599 -6.7845 
1587 1 1.24044 -6.63946 -6.70862 
2623 1 2.30035 -6.83585 -6.78453 
949 1 2.24259 -6.59797 -5.45723 
3587 2 3.27914 -6.60065 -6.08839 
779 1 4.2278 -5.88182 -6.4691 
3569 2 3.4241 -7.19007 -6.46492 
2009 1 4.48033 -6.8353 -6.53749 
645 1 3.81637 -5.96461 -7.1562 
2787 2 5.48401 -6.67583 -6.92024 
924 1 4.4867 -6.81101 -5.73627 
2573 1 6.97552 -7.11687 7.1664 
1291 1 6.80315 -6.47399 -6.71869 
302 1 6.48047 -6.91444 -6.14858 
392 1 -5.7492 -4.66584 -6.78085 
1263 1 -6.79841 -5.02703 -5.95264 
1273 1 -6.14305 -5.41039 -6.19523 
1654 1 -5.15362 -5.32985 -6.73553 
1020 1 -4.36417 -5.58045 -6.75921 
843 1 -3.98779 -5.47113 -5.84524 
2702 1 -3.94258 -5.06912 7.17717 
2981 2 -3.15408 -5.50564 -6.60031 
386 1 -2.18078 -4.82093 -6.90814 
2018 1 -2.18672 -5.77275 -7.03145 
3484 2 -0.90043 -4.58415 -6.96031 
3019 2 -0.829254 -5.37083 -6.99252 
2368 1 -0.892954 -6.26032 -5.85602 
1333 1 0.21278 -5.44881 -7.11428 
2537 1 0.242946 -4.82667 -6.44815 
1836 1 0.00752103 -5.69094 -6.20813 
774 1 1.38528 -5.33846 -6.34463 
3442 2 3.18954 -5.86903 -6.03234 
619 1 1.76559 -4.48299 -5.73357 
290 1 2.58609 -6.08984 -7.02287 
1385 1 1.90381 -5.90155 -5.62605 
1415 1 4.15853 -4.93679 -5.98723 
248 1 3.66275 -5.12127 -6.72481 
288 1 4.23038 -4.95338 7.13266 
3208 2 5.38183 -5.89359 -6.70407 
2812 2 5.18891 -5.09908 -6.50651 
1312 1 6.39075 -5.50722 -7.0166 
274 1 7.00274 -5.59712 -6.37737 
1373 1 6.44263 -4.96103 -6.34471 
1320 1 6.24325 -6.16214 -5.97429 
2706 1 -6.23494 -4.25415 -6.20527 
2975 2 7.18562 -4.11868 -7.02246 
3126 2 7.05858 -3.28454 -6.86017 
2106 1 -6.19197 -3.58068 -6.94213 
1640 1 -4.94969 -4.23345 -6.50687 
1949 1 -6.07826 -4.25717 6.82445 
1477 1 -4.25514 -4.73909 -6.29275 
2516 1 -3.93565 -4.06049 -6.9134 
3041 2 -3.27314 -4.3023 -6.14995 
2661 1 -4.38833 -3.41301 -6.65104 
2381 1 -3.83575 -3.16786 7.11856 
3061 2 -2.93435 -4.92951 -6.12457 
2549 1 -2.04568 -4.26 -6.19601 
139 1 -1.83538 -4.31581 6.85274 
2808 2 -0.970735 -3.8008 -6.70831 
3332 2 -1.15431 -3.17198 -6.44576 
1689 1 -0.336616 -4.63877 -5.94772 
658 1 0.165408 -4.38107 -7.13022 
2709 1 0.838709 -3.64473 -6.22746 
1837 1 0.965733 -4.53046 -6.45032 
628 1 1.99316 -3.45963 -6.54985 
329 1 1.87754 -4.25087 -6.71111 
2256 1 2.83255 -4.55907 -7.03439 
2933 2 2.79345 -4.16445 -5.9678 
2628 1 2.91952 -2.89457 -6.62461 
1418 1 3.18159 -3.68293 -6.85541 
847 1 4.06927 -3.3492 -7.04676 
190 1 3.86212 -4.2565 -6.51267 
303 1 3.83081 -3.60879 -6.07568 
3212 2 4.9731 -4.34995 -6.41012 
3266 2 4.88281 -3.544 -6.32373 
1597 1 6.92983 -4.36411 -5.83473 
2101 1 5.99055 -3.93461 -6.35577 
2331 1 5.87632 -3.66661 7.155 
2612 1 -6.62143 -3.44211 -5.97222 
2114 1 -5.95021 -2.85393 -6.35159 
572 1 -5.50928 -3.53709 -6.4181 
1445 1 -4.97322 -2.79263 -6.17624 
1434 1 -4.24283 -2.58972 -6.52095 
2397 1 -1.97134 -2.66669 -7.1292 
2869 2 -3.33657 -3.5309 -6.12763 
743 1 -2.95804 -3.07254 -7.12388 
1738 1 -1.6548 -2.16053 6.64324 
1087 1 -2.33564 -2.72899 -5.92263 
484 1 -2.28845 -3.46209 -6.52764 
3234 2 -1.33658 -2.18226 -6.21217 
2263 1 -0.18954 -2.56452 -6.69848 
250 1 0.623254 -2.45312 -5.96233 
1050 1 0.115915 -3.60694 -6.94368 
2631 1 1.53105 -2.99103 -5.84125 
3347 2 1.11166 -3.07806 -7.13875 
2804 2 0.834563 -2.4068 -7.03077 
388 1 2.85393 -1.76059 -6.58259 
886 1 2.21285 -2.21558 6.77796 
1770 1 2.17091 -2.53073 -6.71881 
2150 1 3.56372 -1.77526 -5.97499 
2645 1 3.6987 -2.53229 -6.56471 
40 1 3.72643 -2.69267 -5.73479 
2767 2 4.7536 -2.7401 -6.18615 
3550 2 4.91292 -2.03052 -6.05952 
2721 1 6.20339 -2.67207 -5.9126 
3087 2 7.03321 -2.46393 -6.83401 
2670 1 6.75885 -3.45386 -5.80095 
1987 1 5.7993 -2.92133 -6.63609 
2074 1 5.88961 -1.85228 -6.73394 
90 1 -6.28458 -0.957254 -6.79505 
41 1 -5.82459 -1.84931 -6.25891 
2320 1 -4.90052 -1.89855 -6.20471 
1446 1 -3.88953 -0.694258 -6.60747 
3097 2 -5.25176 -1.00596 -7.10757 
174 1 -3.07839 -0.930161 -6.45788 
1722 1 -4.21726 -0.945926 6.95941 
18 1 -4.35358 -1.54119 -6.55274 
1450 1 -4.86947 -1.26179 6.03008 
1800 1 -2.26451 -1.63517 -7.00318 
1928 1 -3.44337 -1.56373 -6.79675 
3105 2 -1.31371 -1.58472 -6.60385 
3200 2 -1.48606 -0.997001 -6.03918 
323 1 -0.971062 -0.306623 -6.73426 
607 1 -0.151354 -1.47713 -6.6711 
3151 2 0.901855 -1.59935 -6.91907 
2520 1 1.99452 -1.40884 -6.34217 
2178 1 1.47372 -1.48348 6.3636 
296 1 2.3891 -0.656616 -6.18995 
1034 1 3.15232 -0.840313 -6.33104 
1085 1 3.92123 -1.08621 -6.79312 
1834 1 3.93261 -1.92287 -6.86692 
1362 1 4.8995 -1.64961 -6.98954 
148 1 5.77268 -0.874521 -5.64652 
478 1 4.91683 -0.677375 -6.90357 
2510 1 5.98175 -1.84909 -5.91034 
1414 1 5.57723 -1.11553 -6.61912 
2840 2 7.17284 -1.78859 -6.6927 
2797 2 6.82166 -1.18923 -6.36114 
385 1 -6.36786 -0.713886 -6.01858 
56 1 -5.53426 -1.002 -5.85104 
3127 2 -5.43649 -0.255284 -6.83228 
625 1 -6.71904 -0.00697404 -6.47346 
2699 1 -4.54062 0.405271 -6.35956 
2601 1 -4.41354 0.0314567 7.1425 
433 1 -3.59722 0.157104 -6.42022 
1112 1 -1.79989 -0.0842525 -6.92367 
343 1 -2.5582 0.131146 -6.55019 
900 1 -2.24341 -0.765403 -6.79931 
596 1 -3.05176 0.112345 -5.78503 
28 1 -1.14207 0.631362 -6.64478 
2796 2 -1.73968 -0.33014 -5.76188 
1828 1 -0.237524 -0.0552918 -7.07612 
994 1 -0.662334 0.0953763 -5.94807 
3088 2 0.792153 -0.769599 -6.72278 
3311 2 0.54515 -0.0492107 -6.55102 
2326 1 -0.39923 -0.795282 -6.25162 
2600 1 1.61531 0.179084 -6.63579 
859 1 1.92098 -1.47988 7.16602 
1695 1 2.89039 0.0391389 -5.96151 
2708 1 2.06672 0.230605 -6.0346 
110 1 3.503 0.909634 -6.41171 
2960 2 2.76534 0.421899 -7.12076 
2418 1 4.67136 0.126453 -6.68305 
1876 1 3.76638 -0.237464 -6.55275 
970 1 5.51903 -0.170801 -5.9658 
140 1 6.22918 0.307579 6.8097 
1698 1 5.66737 -0.179419 -6.88805 
3135 2 6.61119 -0.348181 -6.29943 
3038 2 6.39977 0.436167 -6.19338 
1185 1 -7.00711 0.961904 -6.28654 
3007 2 -5.63761 0.54439 -6.77724 
3140 2 -5.9715 1.15756 -6.51874 
1331 1 -7.05535 1.83347 -6.09559 
1335 1 -4.87264 1.31572 -6.69974 
668 1 -4.94909 1.30315 -5.7397 
1233 1 -3.91906 1.0185 -6.10273 
1238 1 -4.23754 1.97318 -5.85837 
83 1 -3.04856 1.03091 -5.44406 
2275 1 -2.86966 0.960563 -6.48706 
1745 1 -1.04489 1.43636 -6.11653 
1619 1 -0.424838 2.31216 7.16342 
1370 1 -1.84852 0.922832 -6.87831 
1661 1 -0.765584 0.917674 -5.52625 
2928 2 0.327206 0.554733 -6.24786 
3078 2 0.186864 1.35254 -6.1882 
2523 1 -0.56302 1.1067 -6.91315 
1057 1 1.46442 0.985204 -6.87232 
3459 2 2.52628 1.07187 -6.86142 
1176 1 2.99309 1.85555 -5.80389 
366 1 4.66865 1.09907 -6.43533 
312 1 3.71465 1.34592 -7.18412 
377 1 4.22011 2.62183 -6.10875 
2068 1 4.17673 1.8139 -6.52226 
2276 1 5.51761 0.668563 -6.66443 
2151 1 6.69697 1.18343 -7.05822 
3060 2 6.22172 1.10536 -5.83753 
565 1 -6.54667 0.483205 6.85389 
122 1 5.95371 0.983684 7.06879 
3465 2 -6.00292 2.24399 -6.32892 
1476 1 -5.17667 3.12199 -6.56466 
1232 1 -4.91601 2.33243 -6.66888 
3093 2 -4.01166 2.12459 -6.98017 
2783 2 -3.95384 2.88662 -6.88512 
395 1 -3.31949 1.64488 -5.81101 
883 1 -2.83037 1.78217 -6.44415 
1517 1 -2.38719 3.02441 -6.5272 
2563 1 -3.13178 2.5795 -6.31493 
920 1 -1.91843 2.26664 -6.54199 
1255 1 -1.22821 2.22476 -5.84481 
3444 2 0.0400313 2.11629 -6.04924 
2813 2 -0.331359 2.72996 -6.05154 
175 1 -1.12465 2.81131 -6.63986 
371 1 1.2174 1.54661 -6.27702 
693 1 0.995332 1.87381 -7.10132 
3393 2 2.42393 1.89668 -6.80697 
3417 2 2.07599 2.55435 -6.57256 
1092 1 4.98128 2.43114 -5.40034 
795 1 5.19154 2.43433 -6.6281 
1883 1 5.3978 1.64214 -6.79141 
2327 1 5.87351 2.05093 7.07673 
339 1 6.70046 2.08932 -6.92216 
284 1 6.01546 2.74293 -6.9065 
2597 1 6.64519 3.49873 -6.80245 
2736 2 -6.37713 3.01956 -6.38792 
3238 2 -6.46906 3.86806 -6.20223 
2386 1 -7.01195 3.02802 7.1695 
536 1 -5.74 3.91585 -7.07682 
942 1 -5.67893 5.0648 -5.86674 
539 1 -4.98745 3.81353 6.86278 
2396 1 -5.34674 4.04718 -6.24597 
3408 2 -4.16591 3.6892 -6.73165 
3411 2 -4.33569 4.41499 -6.80783 
1394 1 -2.7845 4.07094 -6.30645 
2839 2 -2.23816 4.40344 7.08544 
945 1 -3.26313 4.13645 7.15467 
686 1 -1.64644 3.06521 -6.11379 
448 1 -1.87044 3.93747 -6.16238 
912 1 -1.37079 4.78663 -6.57855 
597 1 -1.18865 3.72501 -6.80382 
2304 1 -0.230219 3.93889 -6.8683 
2080 1 0.546093 3.94169 -6.70728 
3478 2 1.86077 3.35782 -6.71543 
3466 2 1.62647 4.17682 -6.52847 
1916 1 0.586685 3.12003 -6.70247 
1113 1 3.17336 2.31164 6.90979 
899 1 3.05891 3.61033 -6.03106 
2314 1 3.16183 3.06231 -6.84826 
2092 1 3.6554 4.40357 -6.0916 
3551 2 3.82806 4.25477 -7.1693 
2765 2 4.12516 3.37841 7.18085 
862 1 5.62387 4.40116 -6.56895 
1068 1 4.84031 3.30669 -6.35605 
2086 1 4.77571 4.27326 -6.44091 
2061 1 -7.17749 4.34713 -7.06631 
805 1 5.66767 3.56454 -6.65795 
1200 1 6.40566 4.48263 -6.35108 
292 1 -6.2962 4.70565 -7.142 
2594 1 -6.93909 5.34629 -7.11403 
522 1 -5.90875 5.57742 -6.71054 
59 1 -4.64498 4.66415 -5.59598 
2045 1 -5.4843 6.6145 -7.02612 
3471 2 -4.48329 5.2106 -6.56137 
101 1 -2.9296 4.83417 -6.07306 
2832 2 -2.29759 5.20905 7.09648 
138 1 -3.29955 4.92021 -6.8523 
1308 1 -1.5732 5.51164 -6.14724 
2285 1 -0.0784227 4.72847 -6.842 
623 1 -0.969045 5.25878 -7.01883 
1940 1 -0.235546 5.6216 -6.65719 
1767 1 0.568339 5.02589 -6.6228 
2492 1 2.19131 5.52144 -7.12653 
3138 2 1.54399 4.93222 -6.36902 
1889 1 0.448272 4.78432 -5.65446 
96 1 2.64044 5.2121 -6.42576 
839 1 2.829 4.02196 -6.71214 
1016 1 2.78554 4.99748 7.02908 
3223 2 3.74243 5.00089 -7.05676 
3215 2 3.64596 5.81074 -6.85482 
16 1 4.63024 5.19917 -6.34971 
2530 1 5.53243 5.36588 -6.42705 
865 1 5.00354 4.37801 7.12295 
2142 1 6.64608 5.23777 -6.68485 
1985 1 6.49993 5.75775 -6.05159 
1410 1 -6.57383 6.11719 -6.62119 
1697 1 -6.70887 -7.01406 -6.46104 
491 1 -5.97963 6.98025 -5.6127 
3150 2 -4.87231 6.60266 -6.20616 
3463 2 -4.65707 5.94037 -6.4505 
2200 1 -6.06886 6.70638 -6.34834 
2342 1 -3.43656 5.85425 -6.73997 
601 1 -3.63412 6.74458 -6.63222 
1643 1 -2.90039 6.34773 -5.8104 
3268 2 -2.52356 6.56812 -6.83934 
3454 2 -2.29157 5.84692 -7.0644 
2524 1 -1.14364 6.15677 -6.59168 
2635 1 -1.18374 5.87555 6.80594 
1346 1 -1.51497 6.89423 -7.05492 
245 1 -0.611778 7.12586 -6.18793 
1639 1 -0.28287 6.49198 -6.36862 
2630 1 0.216402 6.7055 -5.78761 
2675 1 0.623119 6.08676 -6.85492 
1905 1 2.35844 6.5657 -6.77297 
2831 2 1.43843 5.75481 -6.048 
2899 2 1.41765 6.513 -5.89041 
2379 1 2.48973 6.03261 -6.29295 
2048 1 2.17158 7.17874 -6.0802 
2790 2 3.65026 6.4853 -6.45421 
2711 1 4.87247 5.88959 -6.78186 
916 1 5.79606 6.27673 -6.19011 
639 1 5.25905 6.9439 -6.02226 
1311 1 4.66606 6.65276 -6.65069 
3539 2 5.78705 6.93034 -7.14487 
213 1 6.99972 6.53346 -6.57078 
1727 1 6.95651 6.31325 6.98896 
1871 1 6.09841 6.90251 -5.60809 
1616 1 -6.12218 -6.51424 -5.95091 
2747 2 -7.15245 7.0317 -5.45666 
3520 2 -5.05707 -6.31738 -5.69604 
1872 1 -5.82249 -7.05594 -4.9404 
1184 1 -5.10799 -5.89744 -4.63259 
1506 1 -3.37692 -6.31486 -5.23083 
2176 1 -4.22362 -6.41417 -5.02563 
1149 1 -2.58672 -5.92645 -5.47314 
197 1 -2.93919 7.08679 -5.36493 
1567 1 -2.12422 -7.04656 -5.55677 
3322 2 -1.12225 -6.65952 -4.76053 
3594 2 -0.859378 7.12126 -5.14622 
786 1 -0.0851651 -6.59545 -5.65248 
2038 1 0.12233 -5.71399 -4.37393 
1107 1 0.121225 -6.57628 -4.61247 
2978 2 1.09517 -6.93522 -5.60545 
3128 2 0.882479 -6.22799 -5.54118 
2632 1 1.61805 -6.43054 -4.18622 
1945 1 1.83145 -5.89172 -4.85651 
811 1 2.08186 -6.88167 -4.70921 
798 1 2.87938 -6.88028 -5.03157 
1416 1 3.81736 -6.3808 -5.21489 
709 1 3.78617 -6.71732 -4.18084 
2136 1 3.54605 -5.88213 -4.49159 
610 1 5.46297 -6.6576 -5.76237 
1493 1 4.77018 -5.81605 -5.71263 
3290 2 4.86052 -6.9911 -4.60649 
3487 2 -7.07 -6.55903 -5.42512 
1000 1 6.27811 -6.66472 -5.06972 
695 1 -6.13511 -5.75196 -5.28134 
2828 2 7.11384 -5.83872 -5.21621 
558 1 -5.86691 -6.294 -4.70317 
1851 1 -6.48876 -4.91076 -5.19673 
3416 2 -5.09001 -5.46221 -5.63463 
977 1 -4.27991 -5.40428 -4.83063 
1071 1 -4.68962 -4.43877 -4.5089 
1406 1 -3.37278 -5.48448 -5.22633 
1086 1 -2.64548 -5.59715 -4.67707 
579 1 -1.76999 -6.14542 -5.86044 
1144 1 -2.79444 -4.67598 -4.77784 
2083 1 -1.72217 -5.48827 -6.36104 
3480 2 -1.23501 -5.94859 -4.73474 
1747 1 -0.654109 -5.31271 -5.78379 
2058 1 -0.20621 -5.8256 -5.13031 
842 1 -0.499404 -4.89309 -4.95127 
1538 1 2.09161 -5.13781 -5.26976 
2826 2 0.796081 -5.44013 -5.43616 
1799 1 1.56265 -5.23728 -4.4212 
2957 2 3.06158 -4.99061 -5.95953 
1211 1 2.74951 -5.81722 -4.95497 
1160 1 1.59626 -4.42729 -4.74626 
2469 1 4.05044 -5.40417 -5.36586 
589 1 5.07897 -5.03148 -5.30136 
2566 1 3.56805 -5.0279 -4.64449 
2574 1 5.96842 -5.2656 -5.75043 
2500 1 5.52053 -5.88772 -5.37021 
3010 2 6.79629 -5.20997 -4.94708 
2727 1 -6.67789 -4.00295 -5.28527 
318 1 -6.30668 -3.00816 -4.11767 
3325 2 -5.35635 -4.68586 -5.41561 
2912 2 -5.52273 -3.8552 -5.35334 
523 1 -4.36474 -3.6842 -4.73647 
1671 1 -3.94002 -4.73834 -5.12083 
1979 1 -3.37377 -3.89036 -4.99239 
477 1 -4.35518 -4.23148 -5.71827 
897 1 -2.19868 -5.02792 -5.48355 
594 1 -2.71728 -3.28706 -5.23733 
1629 1 -2.3584 -4.10307 -5.335 
1285 1 -3.0464 -3.0967 -4.46939 
1127 1 -1.34329 -4.82344 -5.88631 
3198 2 -1.52029 -4.36383 -4.67824 
2453 1 -0.0919011 -3.73195 -6.04784 
1380 1 -0.633284 -3.68986 -5.14446 
2768 2 0.553709 -3.74045 -5.1706 
1313 1 1.80885 -2.87376 -4.82644 
3068 2 0.69882 -4.56031 -5.33621 
19 1 1.74171 -3.70433 -5.48338 
1611 1 1.57131 -3.55044 -4.62869 
3249 2 2.70283 -3.45998 -5.60168 
2558 1 2.45429 -4.12342 -4.78896 
2539 1 3.75821 -4.4939 -5.22329 
153 1 4.99587 -3.61643 -5.20177 
26 1 3.34386 -3.86715 -4.69068 
2306 1 5.76108 -3.43662 -5.53573 
451 1 5.62081 -5.11498 -4.74026 
1372 1 5.41197 -4.19751 -4.55836 
452 1 4.60933 -4.40207 -5.34665 
2015 1 5.79343 -4.30769 -5.39329 
3080 2 6.69568 -4.52895 -4.69629 
3173 2 6.48121 -3.59335 -4.71722 
2353 1 -6.65307 -2.35108 -5.98542 
1151 1 -6.90236 -3.20901 -5.04851 
1006 1 -6.91692 -2.19923 -4.70793 
2480 1 -4.59565 -2.40959 -5.43848 
2890 2 -5.98454 -2.463 -5.18416 
2737 2 -5.52493 -3.07884 -5.28239 
1140 1 -3.81467 -2.83605 -4.88107 
1835 1 -4.36088 -3.26912 -5.58846 
2844 2 -3.44979 -2.71042 -5.90195 
1392 1 -4.50067 -2.35358 -4.69181 
228 1 -2.73698 -2.16063 -4.95354 
2105 1 -1.77819 -3.52683 -5.70053 
2439 1 -1.10465 -4.02655 -5.67729 
2139 1 -0.821014 -2.2947 -4.62325 
3227 2 0.390037 -2.88985 -4.95822 
632 1 -0.267844 -2.89191 -5.95061 
3430 2 0.246038 -2.0359 -4.78144 
1859 1 1.46654 -2.14406 -6.05186 
3014 2 2.65797 -2.62009 -5.59524 
2830 2 2.43022 -1.82954 -5.46753 
850 1 4.07858 -2.69499 -5.05248 
27 1 3.81292 -1.83953 -5.11202 
1322 1 4.02222 -3.50546 -5.27788 
1653 1 3.11417 -1.92622 -4.50376 
2617 1 5.58836 -2.47197 -5.24629 
85 1 4.8639 -2.7741 -4.92236 
2360 1 7.04555 -2.30416 -5.47104 
2858 2 6.39792 -2.83855 -4.58902 
1927 1 -6.52404 -1.49715 -5.97875 
2974 2 -5.63033 -1.88247 -5.09233 
2993 2 -6.1276 -1.27831 -4.79849 
874 1 -4.77926 -1.29054 -5.42272 
3543 2 -3.50849 -1.9532 -5.68033 
3256 2 -3.80841 -1.07785 -5.36284 
1474 1 -2.5451 -1.54228 -6.04683 
2465 1 -2.5435 -1.06232 -4.99916 
1953 1 -3.2077 -1.14331 -4.4274 
527 1 -0.445604 -1.95656 -5.69253 
460 1 -1.65361 -2.46385 -5.24247 
858 1 -1.17609 -1.59307 -4.8054 
2589 1 -2.00533 -1.66355 -5.07257 
400 1 0.289164 -0.734637 -5.57178 
922 1 0.407233 -1.73151 -5.8678 
2298 1 1.5693 -0.652412 -5.97125 
308 1 1.19011 -1.33854 -5.78935 
3356 2 2.34282 -1.08545 -5.18023 
656 1 3.63842 -1.07135 -4.86641 
1648 1 3.44766 -1.03525 -5.65161 
2995 2 4.57834 -0.680763 -5.79422 
941 1 3.19068 -0.164382 -5.1965 
891 1 4.60197 -1.01974 -4.55527 
2972 2 4.64531 -1.43681 -5.88985 
1527 1 4.62391 -1.76828 -4.82469 
734 1 5.46641 -1.51955 -5.06475 
346 1 6.53847 -1.5845 -5.42536 
1369 1 -7.02109 -1.51183 -5.29412 
802 1 6.51787 -0.736637 -5.15256 
2605 1 -5.81125 -0.115808 -5.6535 
817 1 -6.77895 0.317743 -5.70428 
1207 1 -7.05382 -0.496934 -5.42888 
3267 2 -6.03458 -0.40766 -4.66583 
1001 1 -4.70572 -0.471664 -6.04962 
2037 1 -5.19971 0.671524 -4.79338 
1781 1 -5.05241 -0.300494 -5.24578 
3144 2 -3.96422 -0.21128 -5.1596 
2466 1 -2.88823 -0.165526 -4.94361 
913 1 -2.85182 -0.696265 -5.70973 
2108 1 -3.35331 -0.393271 -4.26555 
640 1 -2.06081 -0.251082 -4.80289 
2013 1 -0.491048 -1.19611 -5.47294 
2939 2 -1.90263 0.421217 -5.7232 
1195 1 -1.33865 -0.81809 -4.63121 
154 1 -0.83878 -0.465925 -5.22755 
2508 1 -1.418 -0.0205456 -4.36415 
1489 1 0.0238221 0.0821044 -5.3654 
75 1 0.772495 -0.356365 -4.99176 
76 1 1.10908 0.0181606 -5.5942 
1065 1 0.814443 1.10206 -5.19135 
2407 1 2.89829 0.612442 -5.00957 
3557 2 2.1418 -0.351906 -5.10086 
3449 2 1.73265 0.224721 -4.72878 
3317 2 4.23755 0.0757514 -5.52895 
556 1 5.32083 -0.478827 -4.7995 
1788 1 4.40283 -0.271156 -4.38425 
2380 1 5.34316 0.315862 -5.15367 
1472 1 6.12569 0.103667 -4.99716 
34 1 6.91411 0.212889 -5.05967 
1607 1 -6.03193 0.864172 -5.52565 
1224 1 -5.10645 0.518023 -5.61203 
1514 1 -5.70357 1.63737 -5.18791 
2861 2 -3.98305 0.609267 -5.0104 
3062 2 -4.22807 1.48165 -4.84197 
1353 1 -3.21119 2.01962 -4.90228 
3117 2 -2.20258 1.94773 -5.44091 
1198 1 -2.11966 0.687523 -4.51684 
2846 2 -1.99278 1.18075 -5.62887 
1623 1 -0.976885 0.390963 -4.93881 
1971 1 0.012587 0.904109 -5.02242 
2542 1 -0.343285 1.71356 -5.06867 
603 1 0.403289 1.79448 -4.65947 
823 1 1.34908 0.827802 -5.69697 
867 1 1.09719 1.81494 -5.50138 
1524 1 2.70599 0.880427 -5.78546 
2730 1 1.98645 1.45922 -5.79849 
3383 2 1.88563 0.927563 -4.5899 
785 1 2.86958 1.49369 -4.8963 
925 1 3.29458 1.50629 -4.18179 
1677 1 2.40375 2.15616 -5.43613 
2848 2 3.9839 0.81682 -5.40112 
3364 2 3.84671 1.57042 -5.33402 
499 1 5.11029 0.724187 -5.86423 
50 1 6.00638 1.07082 -4.94584 
1282 1 6.88185 1.41218 -4.99704 
723 1 -7.082 0.918345 -5.37749 
2317 1 6.99155 2.61391 -6.46949 
115 1 -6.55407 1.69841 -5.43113 
131 1 -6.75348 2.73009 -5.30369 
2641 1 -5.76837 2.45008 -4.94475 
750 1 -6.17047 3.40463 -5.19221 
408 1 -5.16222 2.25078 -5.69897 
1772 1 -3.66968 2.70327 -5.54464 
2560 1 -3.42485 2.67337 -4.3775 
2845 2 -4.46402 2.25375 -4.88399 
3456 2 -4.66925 3.07765 -4.72734 
2945 2 -2.51932 2.90932 -5.43593 
2977 2 -2.50827 3.68701 -5.14812 
1265 1 -1.05115 1.9825 -5.07342 
159 1 -1.37292 2.95703 -5.38685 
287 1 -1.33377 1.25154 -4.68377 
620 1 -0.803331 3.10636 -4.75739 
1993 1 -0.19184 2.55916 -4.91167 
1978 1 0.665765 2.36846 -5.22728 
583 1 1.07819 2.34784 -6.49411 
1066 1 3.11553 2.75256 -5.70393 
84 1 1.6441 2.65387 -5.63726 
3388 2 3.9256 2.28004 -5.04797 
3433 2 3.53212 3.37756 -4.96555 
194 1 4.84384 1.79122 -6.0176 
1520 1 4.78495 1.55719 -4.59381 
1768 1 5.78067 3.07078 -4.6228 
1398 1 4.99787 2.67319 -4.58193 
2578 1 6.93323 2.2556 -5.19268 
1229 1 7.05786 3.18832 -5.67987 
3298 2 6.08944 2.6436 -5.7422 
3414 2 6.13142 1.84912 -6.07622 
1060 1 -6.06254 3.79325 -4.41434 
2297 1 -6.39743 4.50325 -4.80011 
2653 1 -6.97214 3.77424 -5.16153 
1725 1 -5.48092 3.13815 -5.51836 
35 1 -5.6212 4.14696 -5.52998 
1691 1 -4.44619 3.81514 -5.68846 
353 1 -3.42556 3.57089 -6.02105 
803 1 -3.75682 4.6043 -5.92035 
822 1 -4.48289 2.91521 -5.93603 
2490 1 -3.62585 3.60803 -4.43202 
561 1 -3.49424 3.4256 -5.18591 
2865 2 -2.73703 4.48814 -4.98857 
3458 2 -3.12004 5.17102 -5.05269 
1257 1 -1.47145 3.78497 -4.98666 
3378 2 -0.381628 3.47114 -5.6704 
2208 1 0.30391 3.2923 -4.94338 
1505 1 0.254754 4.32602 -4.90202 
2598 1 -0.373186 3.79646 -4.57996 
1368 1 0.919095 3.24538 -5.82795 
1817 1 0.703078 3.968 -5.73254 
673 1 1.53153 3.54677 -5.44403 
1848 1 2.11651 4.08665 -5.26446 
1923 1 2.38142 3.87889 -4.34379 
301 1 2.34635 3.35299 -5.71525 
703 1 3.82561 3.43075 -6.21362 
2894 2 3.23744 4.11644 -5.03503 
221 1 4.38234 3.96964 -5.84315 
2917 2 5.85884 3.42805 -5.58385 
2927 2 5.3709 4.3274 -5.40668 
82 1 4.74328 3.30897 -5.22357 
2707 1 6.8692 3.95578 -5.89386 
1169 1 6.6079 3.06085 -4.88103 
3045 2 -6.68049 4.59608 -6.07843 
29 1 -6.27348 5.94317 -4.6712 
3147 2 -6.76913 5.39804 -5.80879 
1341 1 -7.10437 4.92461 -4.85274 
829 1 -5.96911 5.05889 -5.03701 
507 1 -5.0313 5.48604 -5.4221 
297 1 -5.72347 5.93492 -5.93137 
223 1 -3.41902 5.52994 -5.96263 
2318 1 -4.09333 5.37889 -5.43017 
1881 1 -2.1327 4.68768 -6.2017 
2988 2 -3.10314 5.87936 -4.85887 
341 1 -1.77393 4.56521 -5.31434 
3207 2 -0.653659 4.75702 -5.70136 
2446 1 -2.02677 5.46732 -5.28798 
1638 1 -0.934484 4.32936 -4.65966 
3392 2 -0.699176 4.00735 -6.04981 
2392 1 0.0102844 5.3454 -4.6568 
1924 1 1.27918 4.53636 -5.2014 
586 1 1.07667 5.4175 -5.14516 
614 1 2.13661 4.78847 -4.44569 
1261 1 2.71627 4.50091 -5.94237 
1515 1 4.203 5.1223 -5.62288 
2814 2 3.10016 4.82783 -4.76762 
2264 1 4.29165 4.44443 -4.97083 
2305 1 3.34704 5.25376 -5.75744 
3257 2 5.32731 5.21444 -5.38442 
1667 1 6.37242 4.93772 -5.60165 
13 1 6.56605 5.84206 -5.0988 
440 1 6.68715 4.24408 -4.94825 
3330 2 -6.80172 6.35464 -5.5392 
1399 1 -6.34842 6.92732 -4.53979 
587 1 -5.67356 6.23133 -5.09911 
2033 1 -5.03384 6.54146 -5.12227 
278 1 -4.99958 -6.91264 -4.7689 
1481 1 -3.82024 6.30187 -5.8392 
1235 1 -4.22244 7.08044 -4.90137 
1435 1 -2.00407 6.25899 -5.8314 
1499 1 -2.10216 6.57159 -4.97426 
1012 1 -2.5291 5.57457 -5.95474 
3265 2 -3.1182 6.51955 -4.61963 
2835 2 -3.21602 -7.07118 -4.35767 
1665 1 -1.79569 6.97375 -4.31907 
1167 1 -1.51433 6.88226 -6.13384 
3018 2 -0.702719 5.62402 -5.5288 
3455 2 -0.920303 6.36488 -5.34579 
401 1 0.403331 6.26821 -5.07835 
225 1 0.28335 5.82202 -5.89682 
849 1 1.11665 6.41004 -4.78832 
2096 1 1.17748 -7.10673 -4.62858 
2429 1 1.88364 5.56264 -4.72416 
696 1 2.52361 5.79553 -5.44945 
799 1 1.94153 6.42941 -5.01055 
2669 1 2.15612 4.99088 -5.42297 
1935 1 2.54172 6.77744 -5.40207 
244 1 3.26453 6.38346 -5.37648 
2088 1 4.55733 5.97922 -5.88699 
1530 1 4.36931 6.77307 -5.66015 
189 1 4.13378 5.99177 -5.18473 
2971 2 5.33776 5.96483 -5.25163 
2926 2 5.15302 6.70691 -4.89613 
1965 1 6.28832 6.83251 -4.72139 
2191 1 -6.69518 -7.18403 -3.59082 
2473 1 -6.62734 -6.50758 -4.32739 
1013 1 -6.73107 -6.17263 -3.17448 
3228 2 -5.4751 -6.77691 -3.48393 
3375 2 -5.7024 -6.01223 -3.65137 
246 1 -4.43618 -6.7263 -4.17781 
3562 2 -3.4613 -5.49388 -4.06541 
3413 2 -3.33371 -6.33034 -4.00481 
1585 1 -1.96994 -6.64888 -3.86033 
2002 1 -2.28931 -6.59321 -4.78108 
2496 1 -2.48374 -6.33327 -3.33232 
1089 1 -1.31608 -6.0886 -3.61191 
1327 1 -1.13898 -7.08405 -3.77991 
2491 1 -0.68107 -6.40806 -3.02763 
2626 1 -0.21915 -6.91101 -3.926 
3056 2 0.666734 -7.1889 -3.45649 
15 1 0.874212 -6.02762 -4.45658 
1289 1 1.78487 -6.98067 -3.55445 
3303 2 2.66149 -5.96573 -3.90496 
1526 1 4.04035 -6.00307 -3.75831 
1442 1 3.64786 7.02923 -5.08111 
2315 1 3.51117 -7.01561 -3.20635 
2825 2 4.7742 -6.24742 -4.60132 
281 1 4.23736 7.07863 -3.54555 
538 1 5.15434 7.11047 -3.5618 
655 1 5.65099 -6.24653 -3.70503 
938 1 4.64774 -6.45358 -3.33922 
2533 1 -6.90632 -5.532 -3.82789 
698 1 6.91451 -6.45361 -4.03434 
2462 1 -6.48041 -5.53215 -4.5772 
316 1 -6.7715 -4.73734 -4.12882 
1994 1 -5.68311 -5.17679 -4.51668 
472 1 -4.79775 -5.01334 -4.03755 
2896 2 -5.77199 -5.15324 -3.41447 
1551 1 -4.58026 -5.13134 -3.06084 
3536 2 -3.66021 -4.74563 -3.95749 
314 1 -2.25923 -5.81084 -4.0046 
520 1 -2.42565 -4.93171 -4.11274 
3285 2 -1.50369 -5.26465 -4.78693 
127 1 -1.64721 -5.34606 -3.71073 
1062 1 -0.663284 -5.45838 -3.17023 
202 1 -0.825363 -5.03987 -3.93104 
2052 1 -0.453335 -6.02467 -3.86685 
1552 1 0.32404 -4.92674 -4.44747 
1683 1 1.04594 -4.99501 -3.98308 
1130 1 1.57249 -5.83742 -3.6468 
2918 2 2.54674 -5.19018 -3.8425 
3379 2 2.36015 -4.42734 -3.62606 
1234 1 2.77138 -4.85891 -4.97005 
1019 1 4.12573 -5.37726 -2.94172 
168 1 3.6114 -5.08535 -3.55919 
3340 2 4.71146 -5.41163 -4.29119 
3244 2 4.51216 -4.65454 -4.18135 
1496 1 5.03336 -5.60694 -3.30397 
893 1 5.89537 -6.11799 -4.63848 
72 1 5.86026 -5.53641 -3.97235 
1461 1 6.70431 -5.59814 -3.97132 
335 1 -6.60908 -3.67614 -4.4073 
2659 1 7.14635 -4.52099 -2.99772 
1361 1 -5.97743 -4.12994 -4.47837 
3286 2 -5.94886 -4.33306 -3.32436 
1449 1 -5.21313 -3.87109 -4.19501 
935 1 -5.48316 -3.29292 -3.72185 
2375 1 -4.91534 -3.33454 -3.02919 
3376 2 -3.79844 -3.98575 -3.8334 
3083 2 -3.93 -3.24146 -3.77814 
2044 1 -2.72733 -3.99443 -4.24687 
2726 1 -2.70635 -3.99894 -3.3104 
111 1 -1.89696 -3.44942 -3.60288 
2916 2 -1.83556 -3.38741 -4.62445 
543 1 -1.99571 -4.31065 -3.70066 
2260 1 -0.753983 -3.20157 -4.48384 
370 1 -0.956449 -3.85997 -3.91916 
1028 1 0.183289 -3.44892 -4.02216 
1846 1 -0.147466 -4.17466 -4.24226 
1422 1 0.8422 -3.93843 -4.06674 
701 1 2.71496 -3.18169 -4.35244 
3230 2 2.12743 -3.7214 -3.69693 
3015 2 1.8102 -3.08028 -3.44023 
984 1 3.10884 -3.27418 -3.55346 
1425 1 3.49517 -4.50432 -4.12971 
2857 2 4.40117 -3.83749 -3.98823 
1595 1 5.7378 -4.82514 -3.81864 
535 1 4.9088 -4.83807 -3.08636 
98 1 6.67852 -4.50606 -3.68923 
753 1 5.63064 -3.83452 -3.54096 
1031 1 6.41867 -3.64727 -3.50672 
1182 1 -7.11632 -2.92866 -3.9511 
2126 1 -6.31461 -2.14483 -3.82546 
2674 1 -4.93557 -3.10386 -4.44702 
1316 1 -4.45703 -1.63233 -4.69898 
808 1 -5.44318 -2.3747 -4.06189 
2157 1 -5.53565 -1.44752 -3.0694 
3229 2 -4.27376 -2.58204 -3.63363 
3447 2 -4.30724 -1.88622 -3.32716 
2302 1 -3.483 -1.99564 -4.49775 
262 1 -3.10755 -2.55602 -3.78502 
2511 1 -2.67617 -3.18745 -3.50945 
2748 2 -2.12189 -1.84038 -3.96535 
2766 2 -2.00924 -2.72667 -4.31162 
1491 1 -0.92287 -1.627 -3.90633 
1931 1 -1.00055 -2.93867 -5.42426 
1239 1 -0.143914 -2.58208 -3.85902 
541 1 1.02063 -2.76795 -4.05548 
502 1 1.29623 -2.11326 -5.1941 
1644 1 1.35466 -1.88486 -4.27169 
1215 1 3.30789 -2.69831 -4.6312 
566 1 2.23321 -2.40183 -4.32795 
1575 1 2.9396 -2.43458 -3.50871 
3353 2 4.16113 -3.08666 -4.05341 
3134 2 4.08799 -2.30227 -3.9072 
1226 1 5.13326 -2.20022 -4.12067 
2299 1 4.89541 -2.90865 -3.26064 
1841 1 5.25292 -3.07229 -4.24026 
2132 1 7.05278 -2.1547 -3.68151 
960 1 5.74053 -2.87677 -3.57733 
1343 1 -6.0844 -1.24971 -3.68918 
1999 1 -6.94348 -0.761678 -3.5666 
1458 1 -5.08921 -1.57456 -4.06609 
670 1 -5.0206 -0.76422 -4.53632 
521 1 -4.07012 -0.974465 -4.25196 
3470 2 -4.45701 -1.19454 -3.17361 
2278 1 -3.23138 -1.49039 -3.56024 
2789 2 -2.10755 -1.09604 -3.78206 
3490 2 -2.38192 -0.398635 -3.61717 
393 1 -1.0011 -0.730345 -3.49476 
3354 2 0.136402 -1.32518 -4.55082 
876 1 -0.165387 -1.0506 -3.22754 
904 1 -0.0580427 -1.80708 -3.51657 
692 1 0.694068 -2.16375 -3.64193 
1897 1 1.23754 -1.20611 -5.00131 
2411 1 0.82315 -1.15838 -3.68782 
665 1 0.998404 -0.714825 -4.25166 
1967 1 2.72475 -1.65057 -3.79021 
1911 1 2.99965 -0.988351 -4.296 
169 1 2.83418 -1.46911 -2.99891 
1237 1 1.96976 -1.23937 -4.27794 
1300 1 2.4072 -0.788843 -3.63675 
2914 2 4.00699 -1.57557 -3.72547 
3483 2 3.72136 -0.8562 -3.5084 
1340 1 5.24438 -1.22841 -3.88953 
721 1 5.28097 -2.01392 -3.26046 
1428 1 6.23381 -1.98138 -3.28502 
1354 1 6.79021 -1.34486 -3.34928 
3116 2 6.24102 -2.13194 -4.48332 
1483 1 -7.06695 -1.39407 -4.18933 
2856 2 6.20274 -1.34313 -4.3068 
1078 1 -7.03038 0.0853674 -3.98134 
3186 2 -6.32856 0.366269 -4.56214 
928 1 -5.67584 1.11646 -3.46634 
1791 1 -6.28667 0.626886 -3.20493 
1790 1 -5.32546 -0.743242 -3.71523 
2010 1 -4.99068 0.150499 -4.23136 
1910 1 -4.2447 -0.0459647 -3.99956 
697 1 -4.42169 0.889274 -3.80478 
412 1 -3.50511 -0.622078 -3.48427 
2436 1 -3.40263 0.373197 -4.04872 
3588 2 -2.4552 0.38927 -3.54254 
3120 2 -2.61691 1.06362 -3.18746 
969 1 -0.807944 -0.0232125 -3.08843 
954 1 -1.43063 0.0950707 -3.56404 
3585 2 -0.117555 -0.455285 -4.30674 
3500 2 -0.300362 0.316409 -4.02348 
1375 1 0.749117 1.304 -3.48062 
2712 1 0.589294 0.440272 -4.73208 
2237 1 0.658088 -0.373747 -3.49373 
840 1 1.66101 -0.474618 -3.81779 
482 1 2.75468 -0.0409992 -4.19049 
2637 1 2.2897 0.295822 -3.41945 
130 1 3.55253 -0.267714 -4.52869 
414 1 2.92949 0.745584 -4.08498 
3305 2 3.67798 -0.161693 -3.07052 
613 1 3.76795 0.644394 -4.24258 
167 1 4.53977 0.41201 -3.56162 
873 1 4.78899 -0.503047 -3.53712 
2054 1 7.1574 -0.525779 -4.40954 
2819 2 5.69613 0.0377018 -3.90276 
2902 2 6.17828 -0.603232 -4.0548 
3263 2 -6.41315 1.0924 -4.31304 
3260 2 -6.79521 1.8524 -4.13051 
1913 1 -7.02406 1.09306 -3.38876 
2383 1 -5.43398 1.91805 -4.46272 
1095 1 -5.70883 2.03585 -3.72082 
2448 1 -5.55131 0.309552 -3.67573 
731 1 -5.10815 1.31975 -3.86003 
1336 1 -3.37438 1.50468 -4.10073 
1367 1 -2.58169 1.42306 -4.46885 
1512 1 -2.8575 0.655287 -4.64029 
3372 2 -2.86491 1.91721 -3.18929 
1894 1 -1.82649 1.76035 -4.20181 
1812 1 -1.50468 1.00621 -3.87858 
1484 1 -1.8608 2.41157 -3.58515 
3555 2 -0.406518 1.04414 -3.9314 
1432 1 0.824279 1.1609 -4.34068 
2950 2 -0.548616 1.78064 -4.03326 
1562 1 0.684192 1.97907 -3.50955 
1777 1 0.807339 0.303466 -3.95821 
3443 2 1.88758 1.67657 -4.64079 
2187 1 1.43861 0.569744 -3.5734 
2575 1 1.57161 1.59796 -3.47497 
2135 1 2.63795 1.855 -3.8168 
295 1 2.35014 1.15978 -3.51201 
2028 1 4.12311 1.48668 -4.06794 
504 1 4.75727 0.668064 -4.47519 
2021 1 5.19752 1.39667 -5.30829 
3369 2 5.47075 1.66064 -3.58079 
3209 2 5.73128 0.871034 -3.92395 
2584 1 6.76667 0.829107 -4.27265 
1684 1 6.50441 1.65772 -3.86201 
3033 2 -6.86294 2.59668 -4.24445 
2440 1 -5.82263 2.98198 -4.21783 
1880 1 -4.77726 2.55903 -3.77455 
1657 1 -6.27417 2.41881 -3.14165 
1148 1 -4.20929 1.83117 -3.7973 
2077 1 -4.08403 3.64986 -3.83962 
2395 1 -3.99307 2.76713 -3.8231 
1531 1 -2.50892 2.33206 -4.2964 
330 1 -1.58812 2.57983 -4.67088 
1706 1 -2.04696 3.04446 -3.27264 
3196 2 -0.826423 2.43644 -3.86651 
2860 2 -0.624657 3.06441 -3.51555 
2673 1 0.447634 2.45853 -4.24884 
14 1 0.970875 3.36288 -3.41885 