ITEM: TIMESTEP
49600
ITEM: NUMBER OF ATOMS
3594
ITEM: BOX BOUNDS pp pp pp
-7.2070817907042217e+00 7.2070817907042217e+00
-7.2070817907042217e+00 7.2070817907042217e+00
-7.2070817907042217e+00 7.2070817907042217e+00
ITEM: ATOMS id type x y z 
1410 1 -6.25501 -6.43514 -5.73044 
1473 1 -6.17242 -6.00159 -6.45791 
239 1 -5.96967 6.8663 -5.75768 
335 1 -5.54574 -6.7254 -7.11793 
3520 2 -4.979 -6.38539 -5.92936 
1906 1 -3.94496 -6.75127 -6.67474 
418 1 -3.62372 6.75547 -6.40972 
2308 1 -4.59695 -7.06974 -7.20184 
2944 2 -2.63597 7.07694 -6.81653 
3574 2 -2.77928 -6.53061 -6.71421 
1893 1 -2.34818 -6.25886 -5.57384 
1567 1 -1.70175 -6.35822 -6.58238 
2626 1 -1.91672 -5.61319 -5.96551 
1093 1 -0.928902 -6.23227 -5.96003 
2292 1 -1.97698 -5.67301 -7.01225 
1587 1 -0.0139921 -5.99453 -6.31472 
1850 1 -0.160367 -6.59063 -5.63563 
3019 2 -0.65074 -6.13815 -7.12854 
2246 1 0.698963 -6.38864 -6.76067 
748 1 1.59552 -6.20354 -6.58727 
2627 1 1.25949 7.18158 -6.78404 
3442 2 3.34084 -6.26506 -6.23262 
849 1 2.45862 -6.1876 -7.03964 
3587 2 3.40852 -6.99061 -6.39426 
1970 1 4.40218 -6.64063 -6.48565 
3208 2 5.51592 -6.79872 -6.98226 
452 1 -6.82851 -7.13007 -6.4502 
610 1 -7.07938 -6.34362 -6.24041 
760 1 -6.6162 -5.41005 -6.02426 
2137 1 -6.2893 -4.75476 -6.61491 
3029 2 -7.12365 -4.96205 -7.20597 
2546 1 -4.58889 -6.23612 -7.17275 
1640 1 -4.88043 -5.17668 -6.68539 
1794 1 -5.37038 -5.95196 -6.96731 
472 1 -3.99165 -6.00125 -6.33811 
139 1 -4.22038 -4.58896 -7.08292 
833 1 -4.21871 -4.93276 -5.93613 
1181 1 -4.22452 -5.58176 -7.12593 
2981 2 -3.09292 -5.66112 -6.43332 
1730 1 -2.50633 -5.25229 6.92397 
890 1 -2.07153 -4.75425 -6.94008 
3061 2 -3.31211 -4.86053 -6.50121 
2630 1 -2.23898 -4.53814 -6.19128 
3484 2 -0.970894 -5.32377 -7.02137 
2808 2 -0.994218 -4.56458 -6.73598 
1313 1 0.0635794 -5.06412 -6.33066 
1634 1 0.0963568 -4.77153 7.14397 
1122 1 0.899118 -5.28174 -6.5506 
1442 1 2.14822 -5.46824 -6.80819 
2957 2 3.06415 -5.48739 -6.10132 
779 1 3.66853 -5.0271 -7.0646 
774 1 1.61455 -5.17149 -6.18728 
893 1 3.94231 -4.59409 -6.34521 
1007 1 4.13087 -5.56068 -6.49389 
26 1 3.11337 -4.41532 -6.921 
2812 2 5.26201 -5.95348 -6.86359 
3212 2 5.10265 -5.19307 -6.72626 
1273 1 6.21173 -6.02304 -6.13778 
1345 1 6.88215 -5.61438 -6.4914 
1399 1 -7.1512 -4.61322 -6.05591 
2200 1 6.48148 -4.78457 -6.26998 
639 1 6.42831 -5.84684 6.954 
299 1 6.13286 -5.23958 -6.91038 
1654 1 -6.36373 -3.90197 -6.24069 
1483 1 -5.78106 -3.70864 -6.81991 
2721 1 -6.50106 -3.05948 -6.10532 
1835 1 -5.29152 -4.4155 -6.73292 
1020 1 -4.57728 -4.26868 -6.38184 
2301 1 -4.14679 -3.58761 -6.76409 
2869 2 -3.48658 -3.32065 -5.83344 
2057 1 -3.15026 -3.54721 -7.10825 
3041 2 -3.26303 -4.03083 -6.0931 
1629 1 -2.23491 -3.86841 -6.69089 
2631 1 -2.67476 -3.4618 -5.05093 
3332 2 -1.07285 -3.70704 -6.59183 
3234 2 -1.23986 -2.79078 -6.50208 
842 1 -1.44095 -3.9587 -5.57752 
103 1 -0.505954 -4.51131 -5.68076 
1489 1 -0.0214805 -3.24075 -6.37972 
2520 1 0.0377457 -4.184 -6.39285 
1644 1 0.774405 -3.32842 -6.09239 
840 1 0.857977 -4.45333 -6.37083 
566 1 2.61941 -3.59459 -6.99398 
1997 1 2.15623 -4.57726 -6.63416 
2539 1 3.73671 -2.60381 -6.68422 
1836 1 3.51064 -3.49717 -6.68585 
3266 2 5.09463 -4.23905 -6.38188 
2767 2 4.91065 -3.3684 -6.33326 
1373 1 5.6927 -3.6533 7.00665 
1918 1 6.23059 -4.08639 -6.78185 
2975 2 -7.09112 -4.08693 -7.08308 
2727 1 -6.61351 -2.2775 -6.19333 
90 1 -5.78515 -2.80483 -6.55554 
936 1 -4.97261 -2.46319 -6.21509 
1445 1 -4.94582 -3.16709 -6.4675 
2661 1 -4.48944 -2.77567 -4.92898 
18 1 -4.76702 -1.49693 -6.49278 
2381 1 -4.38499 -2.4492 -6.74036 
2844 2 -3.69309 -2.67373 -5.84638 
911 1 -3.76544 -2.95121 7.12935 
2070 1 -3.29479 -2.34793 -6.7657 
985 1 -2.12643 -3.62754 6.90881 
1112 1 -2.26588 -3.29833 -6.14251 
1333 1 -2.69246 -2.98083 -6.8147 
3105 2 -1.31699 -2.07292 -6.48865 
1859 1 -0.320692 -3.09259 7.11658 
2298 1 0.844949 -2.45065 -5.80662 
2187 1 -0.0348081 -2.52051 -6.03425 
154 1 -0.230744 -2.53048 -6.82222 
2804 2 0.705029 -1.46461 -6.72525 
3347 2 0.751841 -2.16529 -6.99187 
1695 1 1.61507 -3.06122 -6.04343 
2411 1 1.94274 -3.65061 -6.61685 
1897 1 2.76434 -2.58415 -6.62678 
2600 1 1.9581 -2.6192 -6.81199 
1648 1 3.08185 -1.91659 -6.52587 
1372 1 4.12935 -2.37617 6.99247 
362 1 4.27504 -1.2131 -7.07558 
3550 2 4.73 -2.49675 -6.31981 
346 1 5.98652 -3.18246 -6.64776 
2972 2 4.59713 -1.77928 -6.19735 
3126 2 7.18616 -3.33004 -6.96765 
3087 2 6.98781 -2.38111 -7.00747 
2360 1 -6.50549 -1.08013 -7.06412 
41 1 -6.81811 -0.206643 -6.91307 
351 1 -6.29734 -1.98162 -7.0118 
2560 1 -5.74506 -1.95693 -6.05791 
2320 1 -4.97416 -1.13987 -5.52163 
1001 1 -3.76519 -0.878582 -6.70137 
743 1 -2.36235 -2.41564 -6.16542 
2601 1 -2.92502 -1.49611 -6.5995 
323 1 -2.38618 -0.845086 -6.96254 
2013 1 -2.56711 -1.62574 -5.73787 
3200 2 -1.62554 -1.24355 -6.2845 
2796 2 -1.97789 -0.609058 -5.87254 
2609 1 -0.113521 -0.719622 -5.69095 
3151 2 0.407138 -0.716295 -6.79452 
2718 1 -0.36531 -1.33533 -6.26418 
2673 1 1.51462 -1.26769 -5.92595 
2050 1 1.56559 -2.14889 -6.00807 
190 1 2.22911 -1.75798 -6.52242 
308 1 2.65357 -1.0381 -6.31481 
1843 1 3.43957 -0.851385 -6.58852 
1981 1 3.94495 -0.447482 6.86831 
847 1 3.69277 -1.75516 -6.98108 
3317 2 4.21216 -0.486624 -5.93641 
2415 1 5.75212 -2.15114 -6.61344 
675 1 5.14551 -1.70553 -7.18037 
303 1 5.37226 -1.00534 -6.84686 
2995 2 4.36743 -1.2475 -5.86485 
304 1 5.64884 -1.28811 -5.93902 
2840 2 6.78472 -1.47221 -6.71257 
1224 1 -6.36177 -0.634122 -5.95955 
1369 1 -6.92456 0.720218 -6.5194 
3097 2 -5.77733 0.0509614 -6.86141 
1781 1 -5.2124 -0.455013 -6.05501 
2318 1 -4.54469 0.0960953 -6.25872 
2326 1 -3.04438 -0.706678 -6.1111 
2241 1 -3.17633 1.20821 -6.21629 
661 1 -4.52798 -0.681906 -6.59345 
547 1 -3.68146 -0.0052606 -6.36527 
1255 1 -1.6738 0.559048 -6.94184 
1772 1 -2.71558 -0.0591464 -6.69136 
2390 1 -1.00717 1.10728 -6.8089 
502 1 -0.926384 0.443235 -6.3088 
2589 1 -0.810696 -0.519784 -6.5853 
3088 2 0.401882 0.0171626 -6.51477 
3311 2 0.228784 0.676918 -6.37061 
1708 1 1.24942 -0.299479 -5.85451 
867 1 1.30396 1.14527 -6.79024 
2522 1 2.09031 0.504069 -5.92147 
110 1 2.16341 -0.409372 -6.04667 
2730 1 3.42431 0.84307 -6.41658 
2960 2 2.48497 0.326598 -7.0222 
1218 1 3.23501 0.060758 -6.21761 
2418 1 4.6146 -0.417818 -6.86167 
795 1 3.81339 0.212487 -6.99861 
199 1 5.323 -0.0653147 -6.88334 
504 1 5.22296 0.681568 -5.94604 
2087 1 4.66025 0.443087 -6.51609 
2797 2 6.58173 -0.662993 -6.52868 
3135 2 6.43285 0.152512 -6.27568 
3007 2 -6.13405 1.57762 -6.63009 
3127 2 -5.85684 0.852042 -6.64069 
2386 1 6.99734 1.48586 -6.884 
718 1 -6.97739 1.38719 -5.93905 
1154 1 -4.89157 1.6935 -6.58952 
1232 1 -4.00794 0.942283 -6.16173 
3093 2 -3.90651 2.02795 -7.19111 
686 1 -3.42753 2.03691 -6.14477 
408 1 -2.63528 0.799968 -6.87651 
1265 1 -2.11661 2.33123 -6.53524 
343 1 -1.84903 1.47813 -6.7005 
1971 1 -0.443175 1.46558 6.96413 
2928 2 0.2105 1.41982 -6.49416 
3078 2 0.0295199 2.16332 -6.29466 
1661 1 -0.514067 0.048198 7.12387 
855 1 1.27295 1.9251 -6.71938 
2062 1 3.49979 1.76521 -6.66572 
3459 2 2.43401 1.1751 -7.08564 
3393 2 2.30575 1.98812 -6.93874 
1824 1 4.24305 1.3746 -6.58429 
1388 1 3.3447 1.92928 6.97305 
591 1 3.4475 2.89986 -6.26397 
2066 1 5.30963 1.41142 -6.69162 
2353 1 5.74894 2.08838 7.11136 
478 1 4.221 2.26811 -6.35267 
3038 2 6.33311 0.979998 -6.06738 
1185 1 6.61977 2.16685 -6.91045 
2617 1 6.13315 1.39075 -7.16154 
3140 2 -6.16248 2.46479 -6.58052 
3465 2 -6.31807 3.29937 -6.49465 
1592 1 7.09836 2.87942 -6.94312 
2685 1 -5.22243 2.79525 -6.73282 
59 1 -4.8063 2.53576 -6.05304 
565 1 -4.15305 1.74187 -6.08383 
2783 2 -4.08908 2.84722 -6.94007 
3408 2 -4.14879 3.63599 -6.79444 
2042 1 -2.36512 3.31064 -6.33578 
2466 1 -3.2053 2.70436 -6.32745 
395 1 -2.82064 1.75042 -6.85353 
2694 1 -2.83603 2.20729 6.92605 
287 1 -1.55208 2.86454 -6.39251 
1057 1 -1.17332 2.13675 -6.05947 
1933 1 -0.983421 2.04507 -6.87073 
3444 2 -0.231848 2.87319 -6.18459 
852 1 0.0488061 2.92738 7.16027 
1773 1 0.429109 3.83246 -6.7265 
3417 2 2.05964 2.66931 -6.91233 
32 1 3.11616 3.5231 -6.85925 
171 1 3.16534 2.67287 -7.02423 
1677 1 4.5096 3.07901 -6.06685 
2530 1 3.61323 3.67535 -6.00039 
2338 1 5.026 2.38006 -6.57058 
2142 1 4.52285 4.06821 -5.87533 
1758 1 5.12934 3.23411 -6.66047 
2724 1 6.63888 3.50294 -6.87961 
2061 1 5.98364 2.99034 -6.96543 
1806 1 -7.17379 2.15227 -6.31643 
2736 2 -6.54457 4.03225 -6.18812 
3238 2 -6.62928 4.78196 -5.96689 
964 1 -5.30834 3.61499 -6.58223 
754 1 -5.46184 4.42328 -6.70986 
507 1 -3.51999 4.05041 6.55701 
3411 2 -4.24929 4.35558 -6.90033 
341 1 -1.95523 3.98115 -6.11062 
1098 1 -3.23913 3.75272 -6.15289 
2285 1 -3.03903 3.82933 -7.0997 
945 1 -1.39094 3.57543 -5.52662 
1702 1 -1.05882 3.72597 -6.40405 
2271 1 -0.780459 3.01452 -7.07577 
3378 2 -0.389208 4.35884 -5.75014 
920 1 -0.346741 3.7944 -6.9997 
3478 2 2.09939 3.28634 -6.50398 
1932 1 0.71301 4.04317 -6.09062 
3466 2 1.80261 4.05519 -6.39287 
1249 1 0.410291 4.98748 -6.10014 
583 1 0.999684 4.13008 7.1169 
2261 1 2.71379 3.98837 6.96944 
3551 2 4.11578 3.85654 -6.94102 
2711 1 3.75584 4.5927 -5.80023 
1965 1 5.15295 4.17895 -6.55327 
889 1 5.0981 3.74667 6.81926 
2161 1 4.99159 4.587 7.0572 
339 1 5.72155 3.93516 -6.8705 
2597 1 6.46848 4.0218 -6.24094 
817 1 6.82769 4.46103 -6.71275 
292 1 -6.53849 5.5438 -6.83251 
317 1 -7.17076 5.21189 -7.09527 
1727 1 -5.13278 4.23014 6.84634 
2715 1 -5.66804 5.08847 -6.11352 
3471 2 -4.40975 4.96127 -6.61585 
966 1 -3.25565 4.75596 -6.79598 
3463 2 -4.58201 5.5815 -6.27954 
2524 1 -1.69322 4.59507 -4.98011 
1391 1 -3.02491 5.2292 -6.20644 
2832 2 -2.28399 4.70025 7.14427 
3454 2 -2.29184 5.44443 -6.97859 
215 1 -0.336688 5.53952 -6.35378 
225 1 -1.79287 6.37947 -5.62755 
282 1 -1.51764 5.72119 -6.12415 
1747 1 -1.54147 4.72925 -6.27274 
1663 1 -0.103674 4.70516 -6.77676 
2675 1 -0.878477 6.19178 -6.49046 
3138 2 1.68955 4.91327 -6.395 
2831 2 1.4178 5.54887 -6.00607 
1639 1 0.341369 5.87702 -5.67846 
725 1 0.853637 4.88007 -6.9556 
105 1 0.551969 5.76989 -6.87368 
2314 1 1.42009 5.83163 7.13134 
1068 1 2.84206 4.4055 -6.52087 
1889 1 2.71476 5.81284 -6.42265 
2212 1 3.02786 5.65816 6.80798 
3223 2 3.90158 4.55232 -7.0358 
3215 2 3.64982 5.17305 -6.81779 
2678 1 4.90967 6.17394 -7.01267 
16 1 4.90359 5.32129 -7.08676 
1917 1 5.96841 4.65871 -6.6319 
1871 1 5.48968 5.28016 -6.43132 
1616 1 6.52633 5.06886 -5.92159 
1341 1 6.59506 5.45423 -6.61335 
862 1 -6.65158 6.43531 -6.64744 
1117 1 -6.03251 -6.97366 -6.46611 
3477 2 -4.84138 -7.18781 -6.04925 
3150 2 -4.79614 6.46169 -6.05411 
942 1 -5.94107 6.43778 -6.52162 
1481 1 -3.52542 5.77305 -6.96954 
392 1 -3.30482 6.02965 -6.11943 
3268 2 -2.54937 6.26913 -6.91226 
1984 1 -1.55046 -7.0871 -6.95572 
1881 1 -1.42802 6.65752 -6.29169 
1643 1 -0.746102 -7.14466 -6.15488 
1935 1 -0.00195265 6.56723 -6.21862 
1167 1 0.597155 6.65367 -6.7675 
285 1 1.78748 6.50235 -6.84305 
255 1 2.20895 -7.07567 -6.74469 
703 1 2.64231 6.25433 7.17985 
2131 1 2.58325 5.14384 -6.9883 
546 1 2.86344 7.09175 7.11765 
2790 2 3.80843 5.96617 -6.77631 
3569 2 3.62619 6.65398 -6.50346 
865 1 4.85904 6.32819 -6.21197 
1681 1 5.55851 -7.19802 -5.9182 
924 1 4.61877 7.05381 7.19181 
1882 1 4.62766 7.05446 -6.25949 
2787 2 5.89726 6.87695 -7.07355 
829 1 6.86844 6.4296 -6.50642 
3539 2 5.94716 6.16289 6.93694 
2582 1 6.83718 7.04278 7.1733 
695 1 -6.28534 -5.67463 -5.1888 
1291 1 -5.7157 -6.98927 -5.13626 
2533 1 -6.43739 7.17873 -4.44026 
698 1 -4.95835 7.1023 -4.81517 
595 1 -5.61788 -6.19743 -4.68095 
2248 1 -3.78663 -7.03219 -5.88217 
2002 1 -3.19432 6.78468 -5.59231 
2674 1 -4.70943 -6.45807 -4.78677 
197 1 -3.11057 -6.59875 -5.55839 
1435 1 -3.00763 -5.74912 -5.27386 
3594 2 -1.31845 -6.00388 -4.84707 
2083 1 -0.850566 -5.42049 -5.78331 
1385 1 0.476462 -6.46275 -4.89452 
3128 2 1.0944 -6.36368 -5.72435 
2238 1 2.1329 -7.05772 -5.16837 
2826 2 0.743243 -5.53312 -5.54718 
811 1 2.90658 -6.43386 -5.24405 
1416 1 2.85009 -5.60601 -5.0401 
2623 1 1.66985 -6.04808 -4.97098 
1837 1 2.34245 -6.72232 -5.9603 
798 1 5.30646 -6.3591 -5.88565 
2469 1 3.61745 -6.03415 -4.80337 
916 1 4.95821 -5.50624 -5.60623 
522 1 6.03048 -6.44576 -5.42594 
3290 2 4.97694 -6.57684 -4.71043 
1985 1 5.75501 -5.74403 -5.00061 
2926 2 5.22215 7.09386 -4.843 
2747 2 7.1105 -6.40389 -5.20433 
13 1 6.67609 -6.8649 -6.23813 
3487 2 6.8781 -5.60452 -5.17551 
440 1 6.19744 7.1347 -5.19494 
2388 1 -6.62667 -4.92702 -5.41144 
3416 2 -5.24295 -5.68187 -5.89697 
3325 2 -5.63602 -5.03549 -5.72472 
959 1 -4.81842 -5.64397 -4.33096 
2516 1 -4.5731 -4.3585 -4.74303 
2549 1 -4.43182 -5.15627 -5.10406 
2262 1 -3.51667 -5.1955 -5.38888 
1979 1 -4.12178 -6.10995 -5.44124 
1308 1 -2.53699 -5.11684 -5.50488 
2439 1 -2.65043 -5.10438 -4.54823 
3322 2 -1.58667 -5.16936 -4.70102 
897 1 -1.48804 -4.84408 -5.76057 
3480 2 -1.48432 -4.43882 -4.5087 
2052 1 -0.442061 -3.61998 -5.65016 
533 1 -0.240541 -5.7085 -5.19316 
786 1 -0.433747 -4.91793 -4.95204 
2491 1 2.15822 -5.9115 -5.74354 
1234 1 2.00846 -5.22677 -5.34743 
3068 2 0.553818 -4.90769 -5.23792 
1611 1 1.65809 -4.53701 -5.00174 
2933 2 2.92706 -4.70995 -5.93673 
1019 1 3.74221 -5.17841 -5.23847 
1575 1 3.23112 -4.68221 -4.51989 
1896 1 2.49569 -4.80447 -4.819 
589 1 4.3959 -4.80433 -5.72013 
932 1 4.17918 -5.8391 -5.65989 
2825 2 4.76385 -5.71457 -4.57662 
2145 1 3.67881 -4.19492 -5.37428 
1322 1 5.27957 -4.58294 -5.21357 
98 1 5.73688 -5.22156 -5.87926 
2828 2 6.5463 -4.90003 -5.08221 
683 1 -6.70921 -4.13599 -5.33363 
2737 2 -5.52352 -3.53486 -5.46118 
1251 1 -7.02626 -2.99598 -5.41179 
2912 2 -5.40354 -4.32271 -5.492 
1182 1 -5.00045 -3.49049 -4.55755 
1140 1 -4.58318 -3.33508 -5.66753 
2702 1 -4.22647 -4.26329 -5.54184 
913 1 -3.21024 -4.4616 -5.07372 
228 1 -2.30462 -4.2358 -5.42344 
520 1 -3.31758 -3.24529 -4.66927 
922 1 -1.73102 -3.12944 -5.43924 
541 1 -0.839539 -2.85193 -5.33785 
2768 2 0.617699 -4.09653 -5.01061 
3227 2 0.456245 -3.36497 -5.062 
984 1 2.42805 -3.96184 -4.7025 
692 1 1.57823 -4.12925 -5.87108 
2540 1 1.39567 -3.99992 -4.12647 
3249 2 2.74285 -4.04083 -5.85828 
1160 1 3.89696 -3.68457 -5.91079 
850 1 3.41505 -3.73447 -4.66105 
153 1 5.92209 -4.1977 -5.66995 
1211 1 4.77514 -3.9051 -5.3321 
1364 1 5.40438 -3.26772 -5.31642 
572 1 7.02393 -3.81883 -5.97964 
1994 1 6.09499 -3.45433 -5.90246 
3010 2 6.81348 -4.04068 -4.91315 
3080 2 6.52873 -3.16614 -4.91187 
92 1 -7.19242 -2.08959 -5.54962 
2974 2 -6.06703 -2.09222 -5.06684 
2890 2 -5.83196 -2.81786 -5.36912 
1151 1 -5.05197 -1.93969 -4.59633 
88 1 -5.49228 -2.66757 -4.30091 
1087 1 -4.04743 -3.6441 -4.80684 
965 1 -3.81059 -2.42483 -4.59969 
523 1 -2.53937 -2.70011 -5.28266 
484 1 -3.14699 -1.0889 -4.83769 
607 1 -1.55734 -2.16788 -5.45054 
460 1 -1.14245 -2.19875 -4.62294 
1064 1 -1.4155 -1.43386 -4.95237 
527 1 -0.780106 -2.97866 -4.48322 
3430 2 0.174099 -2.54474 -4.79959 
3354 2 0.0763008 -1.70332 -4.74937 
400 1 1.74174 -3.44693 -5.17779 
1215 1 1.91094 -1.98344 -4.3252 
3014 2 2.72948 -3.21872 -5.72691 
2830 2 2.49662 -2.63958 -5.41925 
2558 1 2.39315 -3.10626 -4.45892 
1527 1 3.64845 -2.77029 -5.78636 
1945 1 3.37259 -2.76484 -4.66066 
1275 1 3.88417 -2.08359 -5.07198 
499 1 5.58362 -2.4588 -5.71613 
1841 1 5.33852 -2.7538 -4.33896 
296 1 4.13337 -3.20626 -5.12405 
2101 1 5.24356 -1.79071 -5.10346 
2126 1 6.6958 -2.68455 -5.99292 
2021 1 6.34139 -1.84616 -5.61352 
148 1 7.20275 -0.941267 -5.39346 
1444 1 -7.09701 -1.67119 -4.60661 
2993 2 -5.95617 -1.29291 -4.97632 
3267 2 -6.1513 -0.616999 -4.75588 
874 1 -4.92009 -2.06371 -5.42677 
2480 1 -4.87315 -0.923202 -4.69188 
3543 2 -3.762 -1.89732 -5.7894 
3256 2 -3.99264 -1.12858 -5.53429 
2605 1 -4.21608 -1.72799 -4.65354 
2699 1 -2.1497 -1.71742 -5.12363 
1635 1 -2.90562 -0.329043 -5.27767 
2511 1 -0.93716 -1.92626 -3.84354 
2465 1 -2.16062 -0.893347 -4.87441 
2139 1 -0.55709 -2.05652 -5.6192 
174 1 -0.903943 -1.21856 -5.45228 
1485 1 0.337938 -1.65013 -5.78265 
1562 1 1.27623 -1.5752 -5.17503 
3585 2 -0.158534 -0.97894 -4.52192 
656 1 1.36983 -2.42736 -5.03577 
75 1 1.31199 -1.30193 -4.3625 
3557 2 2.2957 -1.20026 -5.09355 
1876 1 3.62112 -1.02801 -4.79357 
3356 2 2.49975 -1.84881 -5.38782 
1911 1 3.48663 -1.95472 -5.79023 
2645 1 4.52591 -1.38798 -4.73474 
130 1 4.74739 -2.58046 -5.09991 
1362 1 5.33803 -0.942877 -5.25421 
2015 1 -6.67426 -1.46142 -6.05865 
1672 1 6.3859 -1.05251 -5.38872 
1446 1 6.86691 -0.0248033 -5.17341 
561 1 -6.91754 0.0713102 -5.79411 
3186 2 -6.47827 0.0966259 -4.56981 
477 1 -5.73067 -1.06033 -6.16771 
1353 1 -5.76221 0.123337 -5.64269 
3144 2 -4.11994 -0.250314 -5.32715 
2861 2 -4.22746 0.479245 -5.06153 
2108 1 -3.15579 0.359171 -5.83745 
330 1 -2.2886 0.0961378 -4.79606 
286 1 -3.09262 0.694359 -5.00765 
2939 2 -1.99069 0.237856 -5.92903 
2647 1 -1.35779 -0.38396 -5.05491 
603 1 -0.764646 -0.227188 -5.74081 
324 1 0.46425 -0.172355 -5.42692 
295 1 0.720689 -1.0537 -5.43087 
1763 1 1.25119 0.666121 -5.9606 
892 1 0.739311 0.546651 -4.60939 
3449 2 1.95468 -0.51692 -4.92945 
40 1 3.3767 -1.23789 -5.52725 
2135 1 3.01323 -0.351634 -5.50246 
2848 2 4.32116 0.218163 -5.55736 
410 1 4.40279 -0.60144 -4.41749 
1340 1 5.38065 0.35049 -5.2384 
665 1 5.03516 -0.282889 -4.78256 
2231 1 5.40401 -0.407361 -5.97045 
2311 1 6.04419 -0.177785 -5.17947 
1548 1 6.26291 0.829397 -4.84714 
2037 1 -6.60608 2.05073 -5.37889 
1472 1 7.0355 0.889869 -5.24379 
50 1 -6.2862 0.849627 -5.50374 
1288 1 -4.94584 1.01155 -6.07528 
1725 1 -5.36333 1.36398 -4.35509 
3062 2 -4.35764 1.22711 -5.01055 
2395 1 -3.54029 2.37595 -5.07058 
2846 2 -2.07787 1.03459 -5.81554 
28 1 -2.53256 1.27666 -4.65179 
433 1 -3.37896 1.4841 -5.23069 
3117 2 -2.25367 1.83293 -5.5295 
1525 1 -0.863669 1.26133 -5.77353 
1517 1 -1.27428 0.677311 -5.15999 
994 1 -0.391193 0.491731 -5.47609 
14 1 -0.0704662 1.22687 -5.22467 
497 1 0.740375 1.8718 -5.35736 
2080 1 1.26261 1.48992 -5.85359 
3383 2 1.89319 0.340331 -4.95038 
84 1 0.730643 0.848762 -5.32293 
904 1 1.11709 2.45988 -5.94913 
1998 1 2.06373 1.59642 -5.9649 
371 1 1.97924 2.63423 -5.65431 
805 1 2.81308 1.22314 -5.82478 
3364 2 4.11762 1.04394 -5.52669 
3388 2 3.82871 1.69669 -5.43379 
1414 1 5.06366 1.62999 -5.7203 
2147 1 4.86718 0.889972 -4.70695 
668 1 6.83379 1.7046 -5.1817 
3060 2 6.16265 1.87881 -5.96004 
2276 1 5.50805 1.37663 -5.1342 
1607 1 -6.76155 2.92219 -5.55622 
536 1 -5.37272 1.90588 -5.81407 
305 1 -5.74686 1.4396 -5.22453 
1336 1 -5.65399 2.16069 -4.62228 
3456 2 -4.52806 2.79776 -4.73081 
2845 2 -4.52183 2.05282 -5.00029 
2077 1 -4.13074 2.7589 -5.82629 
1991 1 -3.71275 3.2219 -5.44599 
2945 2 -2.4901 2.59836 -5.3358 
2977 2 -2.37015 3.32325 -5.26169 
673 1 -1.32426 2.77278 -5.42069 
823 1 -1.20027 1.79114 -5.03552 
757 1 -1.56507 2.72128 -4.5192 
1993 1 -0.407064 2.22694 -5.10239 
1848 1 0.990444 3.07842 -6.66879 
2713 1 0.408378 2.23978 -3.7783 
3241 2 1.66922 2.07579 -4.69889 
941 1 2.83123 2.18214 -6.14255 
1368 1 2.73788 1.94476 -5.13011 
1056 1 1.44456 3.30237 -5.53815 
2542 1 2.72484 3.05491 -5.71772 
3433 2 3.77048 2.34107 -5.14234 
2894 2 3.52235 3.0927 -5.09128 
1574 1 4.91717 2.46259 -5.60547 
2092 1 4.68678 3.21373 -5.26717 
194 1 5.49406 2.47536 -4.91544 
723 1 6.95704 3.17653 -6.15583 
3414 2 5.97119 2.61147 -5.8954 
1207 1 6.81198 2.65897 -5.22801 
83 1 -6.71619 4.07691 -4.97408 
1238 1 -6.0182 4.75557 -4.94856 
1910 1 -6.16036 3.4496 -5.21347 
2396 1 -5.81787 2.60602 -5.4971 
131 1 -5.56824 4.24445 -5.4962 
1229 1 -5.36279 3.32334 -5.71215 
2229 1 -3.59185 4.49036 -5.78 
1691 1 -4.46695 3.47821 -5.81004 
912 1 -4.28328 4.41994 -5.43726 
1257 1 -3.87943 3.99096 -4.90354 
2865 2 -2.78359 3.93198 -5.03483 
1053 1 -0.742954 3.18383 -4.8285 
46 1 -0.953697 4.45622 -4.73643 
175 1 -0.436594 3.81145 -4.51249 
1924 1 0.692189 3.12279 -5.66999 
2813 2 -0.341666 3.45052 -5.74057 
2669 1 0.36744 4.42624 -4.90906 
301 1 0.334402 3.38119 -4.93445 
1521 1 1.12039 4.26709 -5.31851 
2592 1 2.16543 3.7158 -5.10223 
899 1 2.81657 4.03615 -5.65354 
2814 2 3.66712 3.78676 -4.88681 
709 1 4.61243 4.13118 -5.07075 
3298 2 5.81635 3.42254 -5.68004 
2917 2 5.63009 4.1829 -5.50913 
459 1 4.86689 3.87755 -4.27683 
34 1 7.06489 3.5816 -5.38148 
1282 1 6.51488 3.45421 -4.79366 
1092 1 6.83604 4.45988 -5.33651 
3045 2 -6.78139 5.60733 -5.78506 
2297 1 6.92335 5.40163 -5.03332 
2317 1 -5.2747 5.29526 -5.31615 
2473 1 -4.88363 4.29087 -5.89004 
297 1 -4.41332 5.2113 -5.35547 
1512 1 -2.58113 4.62463 -6.01322 
2342 1 -3.60852 5.29545 -5.58159 
1344 1 -2.07908 5.09868 -5.54819 
3458 2 -2.82439 4.68127 -4.87789 
2988 2 -2.75337 5.51583 -4.8654 
2401 1 -1.77015 5.65636 -4.84619 
345 1 -2.02108 6.79324 -4.89025 
3207 2 -0.761621 5.88179 -5.32366 
3392 2 -0.844124 4.9242 -5.54153 
1767 1 -0.0457538 5.2424 -4.91716 
2429 1 0.789686 5.12209 -5.17657 
1356 1 0.60435 6.1576 -4.85669 
635 1 1.66793 5.31847 -4.97992 
2168 1 1.94022 4.51231 -5.16202 
15 1 2.55128 4.88616 -5.74986 
1311 1 4.49178 5.6831 -6.04721 
1878 1 3.54077 5.44299 -5.75572 
1130 1 3.35549 6.16445 -5.50356 
696 1 4.40666 5.06679 -5.34015 
2379 1 4.83929 4.86372 -6.11361 
2927 2 5.64292 4.85296 -5.38289 
3257 2 5.52301 5.58615 -5.17409 
2707 1 6.44496 5.78148 -5.74805 
3147 2 -6.92759 6.42443 -5.56206 
3330 2 -7.04445 -7.11824 -5.30565 
29 1 -6.59149 6.00906 -4.70816 
587 1 -5.89038 5.6604 -5.12034 
2440 1 -5.78639 5.97836 -5.84625 
1263 1 -5.86261 6.58056 -5.06224 
2321 1 -4.97017 6.15448 -5.06532 
1346 1 -3.86069 6.16225 -5.63399 
2033 1 -4.09995 6.8642 -5.15729 
2603 1 -2.44876 6.9753 -5.59587 
1370 1 -2.47636 5.8803 -5.84807 
2635 1 -1.76369 -6.90514 -5.94516 
3265 2 -2.93737 6.28689 -4.68398 
1499 1 -2.34307 -6.70599 -4.75001 
3455 2 -1.18995 -6.90332 -4.96754 
3018 2 -0.968317 6.71826 -5.138 
1799 1 0.132144 7.04109 -5.44882 
1107 1 -0.0680649 6.45661 -4.38384 
2899 2 1.3183 6.4464 -5.82186 
2978 2 1.32155 -7.18148 -5.63576 
2564 1 1.54991 6.13333 -4.73083 
1289 1 1.76488 6.89492 -4.36531 
582 1 2.20083 6.594 -5.16982 
427 1 2.3567 6.68288 -6.16917 
2096 1 2.48327 5.82077 -5.46634 
2048 1 3.04892 6.98124 -5.34097 
248 1 4.16726 6.67979 -5.47006 
189 1 4.52331 -6.66185 -5.63548 
1113 1 4.05943 5.86108 -5.15507 
2971 2 5.2191 6.38801 -5.12219 
806 1 5.61562 6.15467 -6.13394 
1667 1 6.31315 6.76617 -5.87914 
1939 1 6.3537 6.28232 -5.10579 
1664 1 7.17493 -5.6316 -4.2282 
2896 2 -5.7348 -6.27478 -3.7359 
2615 1 -6.58526 6.43458 -3.9568 
3375 2 -5.3741 -6.90411 -3.81154 
2146 1 -4.57192 -6.15878 -3.71332 
1149 1 -4.23647 7.06421 -4.24703 
3413 2 -3.50811 -6.52275 -4.4248 
1406 1 -1.55363 -6.1063 -3.83125 
1665 1 -2.45118 -5.95386 -4.62116 
2726 1 -2.95735 -6.83671 -2.8728 
127 1 -2.49585 -6.49578 -3.6634 
1089 1 -0.291986 -5.84145 -4.25346 
1327 1 -1.71732 -7.10017 -4.03621 
2453 1 -0.116735 -6.93268 -4.39482 
245 1 0.85982 -6.15164 -4.24977 
3056 2 0.425284 -6.88175 -3.45176 
1538 1 0.670419 7.02481 -4.6506 
3236 2 0.208176 -6.07465 -3.19848 
2105 1 1.62333 -6.29946 -3.09554 
486 1 1.46356 -6.82258 -4.66011 
2315 1 1.56962 -6.79675 -3.78903 
2918 2 2.8484 -6.79158 -4.26828 
112 1 4.67326 -6.17 -3.47041 
2703 1 3.95555 -7.00749 -4.3407 
1461 1 5.34446 -5.8218 -3.19057 
1000 1 5.40343 -6.9593 -3.31496 
2659 1 5.64598 6.85703 -3.81491 
1256 1 5.56468 -6.43515 -3.90479 
1013 1 6.98714 -6.54555 -4.05099 
997 1 6.14218 -6.74861 -4.51225 
316 1 -6.49235 -6.32212 -4.47898 
844 1 -6.65319 -5.22135 -4.48982 
2323 1 -5.55718 -5.17086 -4.57323 
642 1 -4.79158 -4.98844 -3.53062 
3562 2 -3.63538 -5.70978 -4.27653 
3536 2 -3.83636 -4.9653 -4.1268 
2176 1 -2.44322 -4.68673 -3.58588 
2038 1 -2.70476 -4.26686 -4.41906 
1127 1 -1.89524 -5.35059 -3.57858 
1846 1 -2.06469 -3.89508 -3.39423 
1144 1 -0.850007 -5.52437 -3.69699 
1585 1 -0.45905 -4.8565 -4.13764 
647 1 -1.07966 -4.51548 -3.35849 
1422 1 0.403851 -5.28621 -4.18741 
1028 1 1.43325 -5.27692 -4.49594 
247 1 1.12335 -5.48345 -3.64301 
3379 2 2.33213 -6.11529 -4.09168 
3230 2 2.32264 -5.39379 -3.81461 
834 1 3.38559 -5.40509 -4.15542 
3340 2 4.48346 -5.04508 -4.40861 
1741 1 3.76026 -6.20096 -3.86211 
60 1 3.24453 -5.73799 -3.14472 
2722 1 4.17639 -5.40144 -3.3368 
451 1 5.70381 -4.54547 -4.46581 
1428 1 5.74928 -5.33166 -4.01244 
2507 1 6.30163 -5.96191 -4.16419 
2521 1 7.03891 -3.83239 -3.28246 
790 1 -6.98933 -4.54282 -4.13969 
1542 1 -6.25656 -4.57221 -4.72703 
1354 1 -6.36432 -3.6401 -4.83561 
3100 2 -5.93397 -4.85757 -3.54146 
3051 2 -6.24067 -4.11331 -3.39479 
1361 1 -5.09308 -4.57042 -4.18 
56 1 -5.74351 -4.01635 -4.26931 
550 1 -4.8636 -4.17204 -3.30105 
86 1 -5.23882 -3.50154 -3.65457 
3376 2 -3.77895 -4.21086 -3.90959 
3083 2 -4.11856 -3.49295 -3.6585 
977 1 -2.89021 -3.54487 -3.8798 
3285 2 -1.61733 -3.76836 -4.4535 
3198 2 -1.94365 -3.10861 -4.28768 
358 1 -0.629601 -3.81906 -4.03317 
1266 1 -1.17111 -2.76684 -3.48275 
1050 1 0.0494977 -4.07841 -4.047 
2058 1 -0.605157 -3.99533 -4.81161 
2263 1 -0.270493 -3.12204 -3.83488 
1195 1 0.742975 -3.61288 -3.80632 
1491 1 0.792943 -4.58044 -3.85443 
3320 2 2.2862 -3.84847 -3.52363 
3015 2 2.29962 -4.60396 -3.83848 
1653 1 3.18676 -3.32849 -3.91393 
1415 1 3.49134 -4.16766 -3.7783 
3244 2 4.37713 -4.31072 -4.50985 
2670 1 6.47813 -4.71773 -3.86454 
169 1 5.34232 -4.27798 -3.56911 
168 1 6.15004 -3.91529 -3.76837 
517 1 -7.16467 -4.14995 -2.51877 
1851 1 -6.90359 -2.73538 -4.4997 
2612 1 -6.16681 -3.14944 -4.26457 
2375 1 -5.9565 -1.94464 -3.74 
1027 1 -7.05815 -3.62693 -4.09435 
318 1 -5.39033 -2.59179 -3.52086 
1579 1 -5.09082 -2.40424 -2.49231 
3229 2 -4.3857 -2.74502 -3.60819 
3447 2 -4.36177 -1.9982 -3.61212 
1285 1 -3.30123 -1.78478 -3.97213 
2044 1 -3.01589 -2.06011 -4.85025 
2766 2 -2.27782 -1.62118 -3.88858 
1380 1 -3.22682 -2.65141 -3.88215 
543 1 -2.58556 -1.45819 -2.99989 
2916 2 -2.14125 -2.36272 -4.26129 
1055 1 -0.195025 -2.29462 -3.66665 
1969 1 0.506956 -2.81834 -3.68793 
749 1 0.951248 -3.6168 -3.01707 
1239 1 1.36153 -2.8974 -4.25378 
2901 2 2.06114 -3.15529 -3.26888 
2935 2 1.89693 -2.41637 -3.35951 
1830 1 2.82157 -2.33564 -4.11455 
261 1 3.66889 -3.37152 -2.98967 
2857 2 4.61857 -3.5886 -4.08556 
3353 2 4.30991 -2.80607 -4.04505 
2072 1 5.13624 -1.93817 -3.37651 
1595 1 5.65019 -3.67651 -4.53896 
85 1 5.79276 -2.41699 -3.57854 
3173 2 6.34377 -2.36993 -4.75701 
2211 1 6.14886 -3.09088 -3.83104 
2858 2 6.22921 -1.6982 -4.30381 
2657 1 -7.05887 -2.20999 -3.91509 
1294 1 -6.49041 -1.36529 -3.91455 
2351 1 -5.97541 -0.760855 -3.54188 
1316 1 -5.62101 -1.68728 -2.89221 
2436 1 -5.42014 -1.3562 -3.91338 
697 1 -5.27595 -0.430124 -4.00377 
2302 1 -3.79897 -1.00134 -4.27475 
1790 1 -3.34602 -1.26466 -3.02945 
3470 2 -4.50003 -1.3092 -3.34959 
2748 2 -2.34008 -0.766806 -3.90995 
2400 1 -1.41298 -1.27283 -3.39266 
858 1 -1.17459 -1.08337 -4.19765 
370 1 -1.16286 -0.338373 -3.46015 
1065 1 -0.398035 -1.1997 -3.4826 
1441 1 0.356754 -0.79286 -2.81011 
167 1 0.538304 -1.58961 -3.32245 
393 1 0.691103 -0.672331 -3.83979 
876 1 0.921114 -1.96719 -4.06099 
414 1 1.92419 -0.814227 -3.95175 
873 1 3.16314 -1.70947 -4.65553 
1085 1 2.70383 -1.40867 -3.95764 
1300 1 2.7211 -1.68867 -3.02006 
2407 1 2.94226 -0.63994 -4.52874 
3134 2 3.98599 -2.1218 -3.82875 
2914 2 3.77982 -1.34772 -3.55918 
960 1 5.06564 -2.01872 -4.2326 
721 1 5.85584 -1.34192 -3.25776 
734 1 4.59043 -1.53876 -2.9217 
2132 1 6.88507 -1.46658 -3.53353 
1326 1 -7.2027 -0.710046 -4.36146 
1568 1 6.39834 -1.07773 -2.65879 
3116 2 5.94568 -0.981426 -4.31133 
2578 1 -6.71138 -0.279462 -3.46185 
1880 1 7.08736 0.418703 -3.69043 
1953 1 -5.09478 -0.235832 -5.14962 
2028 1 -5.28644 0.261739 -4.37786 
2363 1 -5.31461 0.660047 -5.22058 
159 1 -4.33986 -0.428525 -4.20424 
1787 1 -4.2686 0.275669 -4.04351 
1809 1 -3.49222 -0.60499 -3.59633 
594 1 -3.44955 0.775344 -4.2319 
1623 1 -3.40324 -0.0958835 -4.5471 
2789 2 -2.49632 0.0535026 -3.79653 
3490 2 -2.66299 0.857177 -3.44057 
667 1 -1.33486 -0.100635 -4.31461 
1777 1 -1.77977 0.911628 -4.62229 
3500 2 -0.207719 -0.210149 -4.54297 
3555 2 -0.514756 0.424842 -4.20783 
1432 1 0.639952 0.0796508 -3.64508 
2020 1 0.937727 -0.535959 -4.74772 
2650 1 1.58071 0.0152093 -3.76514 
76 1 3.76148 -0.205872 -4.91286 
2084 1 2.47925 -0.0188087 -4.00688 
377 1 3.21288 0.290621 -4.44913 
3483 2 3.71523 -0.677362 -3.59247 
388 1 3.7515 0.91443 -4.42317 
3305 2 3.5812 0.104194 -3.33941 
2074 1 4.44844 0.319694 -4.33336 
2856 2 5.87953 -0.251026 -4.05534 
2201 1 4.92506 -1.08477 -3.93034 
2902 2 5.66288 0.396211 -3.9047 
802 1 6.83607 -0.461065 -3.50368 
2642 1 6.8648 0.241026 -4.45701 
49 1 6.80533 1.13885 -4.16444 
3263 2 -6.5204 0.889015 -4.48796 
3260 2 -6.73532 1.75989 -4.41763 
443 1 -5.61474 2.06137 -3.79339 
1169 1 -4.75561 0.936822 -3.86687 
1853 1 -5.7167 0.923035 -3.66342 
2448 1 -3.94865 1.59261 -3.91469 
2508 1 -3.27395 1.71776 -4.36469 
3588 2 -2.75933 1.60524 -3.40364 
2228 1 -1.53426 0.710204 -3.9044 
883 1 -2.04479 1.90853 -4.35993 
3196 2 -0.741808 2.02006 -3.99285 
1894 1 -1.76029 1.42124 -3.59428 
2950 2 -0.423458 1.24336 -4.21475 
1706 1 0.489662 1.44208 -4.4417 
3443 2 1.87352 1.26888 -4.81418 
1375 1 1.10352 0.919972 -3.86477 
974 1 1.93299 0.87444 -3.71607 
2575 1 2.60783 0.738714 -4.15183 
1325 1 4.40092 1.45691 -3.9842 
82 1 2.98977 0.496784 -5.38844 
710 1 4.25803 2.41886 -4.16047 
2819 2 5.48457 1.18706 -4.00733 
3209 2 5.4927 1.91421 -3.72684 
2380 1 4.78338 1.8864 -4.75141 
556 1 6.25291 1.88817 -4.7498 
1927 1 6.64942 1.43214 -3.26942 
2584 1 6.67123 2.24463 -3.83306 
3033 2 -6.85808 2.74729 -4.39592 
3021 2 -7.00348 3.49841 -4.11164 
1060 1 -5.82894 3.04937 -4.52216 
554 1 -4.79096 1.94415 -3.74604 
1514 1 -6.23945 2.69034 -3.42213 
1913 1 -5.07278 2.85049 -3.63228 
803 1 -3.58508 3.2245 -4.58961 
731 1 -3.78156 2.47226 -4.06732 
2551 1 -2.87934 3.41014 -4.09715 
3120 2 -3.03085 2.50932 -3.15219 
2490 1 -2.88004 2.5371 -4.30442 
291 1 -2.09564 2.75213 -3.81254 
1367 1 -2.02937 3.47398 -3.19972 
2860 2 -0.75784 2.88011 -3.78056 
2280 1 -1.65843 2.21529 -3.29748 
772 1 1.10468 2.84207 -3.35365 
1505 1 0.351466 2.52549 -4.78187 
1486 1 0.26581 1.49398 -3.47966 
3063 2 1.36567 2.81271 -4.4318 
2313 1 1.24638 1.85274 -3.80027 
2286 1 2.23798 2.68748 -3.81797 
2405 1 1.51802 3.41658 -3.03209 
2150 1 3.05802 1.2372 -4.70905 