ITEM: TIMESTEP
22900
ITEM: NUMBER OF ATOMS
3594
ITEM: BOX BOUNDS pp pp pp
-7.1969155317153897e+00 7.1969155317153897e+00
-7.1969155317153897e+00 7.1969155317153897e+00
-7.1969155317153897e+00 7.1969155317153897e+00
ITEM: ATOMS id type x y z 
2521 1 -6.10755 -6.87068 -5.73982 
2206 1 -6.82966 -6.61827 -6.42687 
1263 1 -5.96233 -6.12361 -6.47749 
601 1 -4.55612 -5.63229 -6.90626 
3520 2 -4.83586 -6.3089 -5.67482 
3477 2 -5.10171 -6.83504 -6.13069 
558 1 -5.76316 -6.82894 -6.87251 
833 1 -4.48506 -6.53658 -6.94963 
520 1 -4.00405 -5.70882 -6.33624 
1262 1 -3.61954 -6.58681 7.17657 
2944 2 -2.77602 -6.48231 -6.57651 
1582 1 -1.67883 -5.68869 -6.75716 
1643 1 -1.22573 -5.7579 -6.07209 
3019 2 -0.557171 -5.52117 -6.97501 
1333 1 -0.191358 6.77456 -6.37037 
448 1 -2.00494 -5.98611 -5.86482 
2058 1 -1.98673 -4.83617 -6.58377 
2368 1 -0.0357121 -6.89085 -5.91446 
2429 1 0.198845 7.06634 -5.22966 
1175 1 1.2395 -5.89545 -6.63727 
2415 1 0.456866 -7.1321 -6.57949 
1249 1 1.33716 -6.80663 -6.90143 
1689 1 0.5141 -5.29863 -6.46814 
2957 2 3.21246 -6.00843 -6.08494 
3442 2 3.26424 -6.75058 -6.37147 
1234 1 4.29909 -5.50184 -6.3585 
1100 1 4.4684 -6.82191 -6.85029 
3208 2 5.36767 -5.67509 -6.57974 
2787 2 5.57148 -6.42856 -6.81598 
209 1 5.26284 -6.70653 -5.88143 
2009 1 6.32144 -6.53921 -5.91521 
1954 1 6.95679 -7.1122 7.19637 
1724 1 6.81224 -7.1597 -6.28287 
1526 1 6.06269 -4.8477 -5.70753 
317 1 -6.95371 -5.60505 -5.96194 
1373 1 6.59516 -5.61696 -6.26379 
1184 1 -6.26868 -5.18101 -6.26299 
1406 1 -5.00445 -4.8237 -6.80324 
3416 2 -5.17744 -5.67959 -5.84491 
1437 1 -5.60709 -5.38821 -6.95631 
262 1 -4.30974 -4.97093 -6.00682 
890 1 -3.76506 -3.6824 7.19605 
2612 1 -3.9653 -4.98272 7.16079 
3574 2 -2.82862 -5.66455 -6.32705 
2981 2 -3.13894 -4.73754 -6.31154 
484 1 -2.1171 -4.24506 -5.71579 
2808 2 -1.07622 -4.12779 -6.74519 
1634 1 -0.681882 -6.38482 -6.10178 
3484 2 -0.850854 -4.89942 -7.00228 
1133 1 -0.592904 -5.02415 -5.8052 
1210 1 -0.195287 -3.97887 -5.83949 
1050 1 -0.00512001 -4.76748 -6.17043 
1088 1 1.25579 -4.84266 -6.61722 
2933 2 3.10121 -5.32751 -5.9744 
1538 1 2.33177 -6.50296 -6.88073 
2048 1 2.1863 -5.65849 -6.80058 
628 1 4.46774 -4.73764 7.13303 
2150 1 4.06943 -4.52117 -6.33335 
1770 1 4.07598 -3.68582 -6.92826 
2812 2 5.16006 -4.85577 -6.44535 
2656 1 6.59948 -6.36824 -6.73897 
2015 1 6.19289 -4.52934 -6.67282 
639 1 6.84812 -4.79624 -6.06822 
1918 1 -6.78821 -4.53265 -5.77923 
3029 2 -7.11208 -3.9699 -7.13181 
2122 1 -5.61488 -4.39871 -6.75065 
1280 1 -4.93765 -3.61798 -6.41709 
3061 2 -3.15921 -3.95081 -6.07201 
128 1 -1.55143 -3.75345 6.8026 
2289 1 -2.14175 -3.29004 -6.97906 
2124 1 -1.98604 -4.4996 6.93222 
667 1 -3.56572 -2.93946 -7.03386 
3332 2 -1.1317 -3.38217 -6.56961 
579 1 0.482588 -4.78443 -7.00493 
2520 1 -0.0429464 -3.21346 -5.98582 
1905 1 1.15919 -3.67832 -6.19341 
1663 1 1.97121 -3.96925 -6.81033 
1168 1 1.88293 -5.05868 -6.01564 
1734 1 2.25468 -4.70822 -6.9344 
19 1 3.28928 -4.52682 -6.97223 
1976 1 2.93692 -3.76414 -6.94966 
985 1 4.16794 -2.80383 -7.12179 
1897 1 3.5648 -3.13133 -6.52587 
3212 2 5.16457 -3.97927 -6.3916 
3266 2 4.85203 -3.03305 -6.25971 
452 1 6.10127 -3.9148 -5.83999 
1527 1 6.24853 -3.47798 -6.70728 
1282 1 -6.82272 -2.84799 -5.16099 
1078 1 -6.28867 -4.07626 -6.33028 
1361 1 -4.60108 -2.37377 -5.57444 
923 1 -4.491 -1.95482 -6.4851 
1392 1 -5.20736 -2.7785 -6.09198 
3041 2 -3.39326 -3.31397 -6.02391 
1784 1 -4.36655 -2.94687 -6.7292 
1087 1 -4.29162 -1.15802 -6.69937 
2549 1 -3.54265 -1.98236 -6.95441 
594 1 -1.9673 -2.41833 7.02842 
2139 1 -2.63497 -2.75784 -6.65341 
3234 2 -1.12291 -2.61111 -6.54454 
3105 2 -1.55785 -1.98989 -6.3767 
722 1 -0.0904063 -3.54482 -6.81917 
3347 2 0.91875 -2.50978 -7.05596 
2599 1 1.74943 -2.96777 -6.56488 
502 1 0.670131 -2.85875 -6.02125 
3503 2 0.875208 -3.2997 7.14576 
1374 1 2.66913 -2.83436 -6.7682 
1635 1 1.22467 -1.72049 6.40263 
1111 1 2.06842 -2.29939 6.97355 
308 1 2.03675 -3.23842 7.04832 
2062 1 3.96157 -1.99946 -6.71047 
1372 1 5.60971 -2.84811 -7.09951 
2767 2 4.80727 -2.28654 -6.03904 
3550 2 4.57555 -1.41214 -5.93955 
2975 2 -7.02424 -3.15563 -6.67014 
3126 2 -7.17507 -2.59801 -7.10804 
1414 1 5.71028 -1.90199 -6.33138 
670 1 -6.35253 -1.79782 -6.85378 
351 1 -5.97518 -1.21628 -6.19193 
1459 1 -6.25167 -2.33019 -6.24143 
2126 1 -6.48417 -0.25503 -6.44484 
1800 1 -5.45351 -1.92272 -6.14442 
1001 1 -5.0346 -1.2097 -6.14844 
3360 2 -5.3359 -1.6897 7.16665 
395 1 -3.42361 -1.11729 -6.82211 
1370 1 -2.70045 -1.91763 -6.63681 
1457 1 -2.77488 -1.33314 -5.98243 
1356 1 -2.34082 -1.62838 7.08763 
3200 2 -1.7358 -1.26669 -6.25038 
433 1 -0.942247 -1.03111 -7.14404 
2108 1 -0.604923 -0.8107 -6.25734 
2796 2 -1.8613 -0.524802 -6.00858 
2589 1 -0.483288 -1.5574 -6.60574 
3151 2 0.452913 -1.03588 -6.71085 
2057 1 0.268567 -1.81955 -5.81717 
2804 2 0.785882 -1.76374 -7.06523 
171 1 1.84706 -1.50011 -7.01932 
925 1 1.47594 -1.03044 -6.26998 
859 1 2.6289 -0.975832 -6.22352 
970 1 3.18086 -0.342648 -6.16092 
70 1 4.94327 -2.14655 7.11803 
2730 1 3.39175 -1.18543 -6.56229 
2972 2 4.26235 -0.795639 -5.83657 
377 1 4.74757 -0.478089 -6.80261 
2500 1 5.90834 -1.17225 7.05284 
2220 1 5.825 -2.00526 -7.19355 
1834 1 4.22068 -1.10862 -6.93219 
3087 2 6.874 -1.97762 -6.74654 
2840 2 6.87497 -1.25116 -6.48208 
1331 1 -6.86337 -0.719011 -5.63425 
449 1 7.19572 0.0789861 -6.93053 
3097 2 -5.50101 -0.950859 7.09747 
2037 1 -5.30718 0.224694 -5.55723 
3127 2 -5.48148 -0.201169 -7.04466 
83 1 -4.80466 -0.310526 -6.13368 
174 1 -3.69013 -0.306557 -6.54813 
2560 1 -3.12635 0.56882 -6.09796 
2180 1 -4.49941 0.563285 -6.7487 
2320 1 -3.84271 0.483272 -6.32036 
1474 1 -2.66911 -0.980529 -6.95413 
902 1 -1.81796 -0.980434 7.0038 
1993 1 -1.39847 -0.162485 -7.11236 
28 1 -0.993737 0.916811 -6.44729 
1601 1 -1.57743 -1.73735 6.67696 
3088 2 0.345713 -0.204282 -6.48273 
1812 1 -0.875398 -0.135159 -6.506 
1286 1 1.33064 0.154984 7.08931 
3459 2 2.27009 0.944093 -7.03617 
2535 1 3.81375 -0.122419 -6.87098 
530 1 2.50755 0.0489983 -5.87768 
47 1 2.80928 1.0185 -5.43652 
1698 1 3.62847 0.412544 6.88781 
2183 1 4.44979 0.510281 -6.45565 
2013 1 2.94128 -2.14386 -6.35335 
1788 1 5.95471 -0.295247 6.90502 
140 1 5.27803 0.0203969 -5.84799 
656 1 5.13126 -1.34723 -6.9063 
2797 2 6.52876 -0.55944 -6.4194 
3135 2 6.24205 0.18978 -6.13714 
339 1 -7.16414 1.85562 -6.0897 
3007 2 -5.85259 0.405425 -6.81436 
3140 2 -5.9825 1.16232 -6.55345 
2061 1 -7.18277 1.15168 -6.94586 
1238 1 -4.89316 1.80602 -6.44059 
1607 1 -4.89117 0.685439 -6.10712 
625 1 -4.96197 1.15807 -7.01467 
3148 2 -3.9411 1.65077 -7.07659 
561 1 -4.19972 1.39519 -6.02605 
1894 1 -2.59741 -0.148396 -6.93643 
1353 1 -2.6149 0.724597 -6.73028 
1265 1 -1.72607 0.739011 -6.97666 
1978 1 -0.751865 1.62531 -6.99767 
2208 1 -0.591003 2.43011 -6.97533 
731 1 -0.605156 0.396301 7.15934 
3311 2 -0.0971873 0.492309 -6.24216 
2928 2 0.16588 1.22754 -6.37307 
1933 1 -0.143114 1.40931 6.91072 
1997 1 1.90375 0.670036 -5.90094 
1257 1 1.2054 2.17398 -5.57078 
3393 2 2.40415 1.60255 -6.67685 
1889 1 3.01527 2.7307 -5.91653 
2276 1 3.77407 1.02597 -6.51137 
1322 1 5.45416 0.0299636 -6.79008 
2380 1 3.56092 2.00105 -6.67068 
1883 1 4.65135 1.69651 -6.3016 
1185 1 5.09536 0.78611 -5.95928 
284 1 5.73944 0.628133 7.1487 
50 1 5.35438 1.16898 -6.68293 
2690 1 -6.87763 1.91541 -7.09283 
3038 2 6.3328 1.09888 -6.0751 
2530 1 5.57086 1.61462 6.70218 
1806 1 6.40045 1.36116 -7.08534 
3465 2 -6.11698 2.01413 -6.4068 
2685 1 -4.98192 2.82823 -6.57216 
1318 1 -5.28751 2.37365 -5.59377 
1335 1 -4.51964 2.44994 -5.87842 
3093 2 -3.80354 2.5001 -6.967 
2783 2 -4.01684 3.33418 -6.82491 
2508 1 -1.99646 1.69606 -6.75119 
1623 1 -1.48445 2.22336 -6.4573 
1543 1 -3.20279 2.82971 -6.07239 
2505 1 -2.61128 2.1791 -6.52822 
818 1 -0.795105 3.1935 -6.67007 
883 1 -1.91858 3.04917 -6.34309 
3444 2 -0.117863 2.93352 -5.82325 
1932 1 0.434152 2.28403 -7.08404 
1877 1 1.01056 3.28079 -7.10787 
1368 1 0.841463 2.66033 -6.3708 
2673 1 1.41821 2.69235 6.88343 
3417 2 2.16895 2.37796 -6.75629 
3478 2 1.97593 2.83724 -6.2975 
1113 1 3.16239 2.84183 -6.7879 
588 1 2.64458 3.14394 -5.30311 
1066 1 4.17053 3.43176 -5.92223 
865 1 3.79244 2.60688 -6.04421 
3551 2 4.22487 3.29583 -7.06491 
2072 1 6.77528 2.2789 -6.67539 
1515 1 4.6342 2.63069 -6.10425 
2305 1 5.34545 2.1215 -6.56675 
2594 1 -6.93616 2.87678 -6.98365 
2736 2 -6.05493 2.76432 -6.19794 
3238 2 -6.33407 3.35313 -5.95346 
2268 1 -5.8218 4.32997 -6.65305 
1833 1 -5.20859 3.92481 -6.2597 
2308 1 -6.26766 5.15279 -6.79184 
3408 2 -4.20862 4.11673 -6.61016 
3411 2 -4.02239 4.8672 -6.48016 
715 1 -3.07819 4.59085 -6.78596 
803 1 -3.43353 3.65955 -5.89722 
1523 1 -2.83808 3.63835 -6.70392 
287 1 -2.25669 4.02644 -6.10371 
1486 1 -0.836735 4.30315 -6.6723 
2326 1 -1.32618 4.342 -5.17438 
1308 1 -0.970888 4.64864 7.00835 
2522 1 0.126332 3.97391 -6.77662 
2813 2 -0.0909737 3.72601 -5.73773 
324 1 0.581388 4.87794 -6.39915 
3138 2 1.90693 4.31088 -6.33521 
1639 1 0.886045 3.82861 -6.36382 
3466 2 2.09966 3.65137 -6.53379 
703 1 2.86936 3.54118 7.13679 
1923 1 2.87614 4.56907 -6.71548 
268 1 3.22312 3.65739 -6.24005 
3223 2 4.05669 3.98231 -6.87622 
2066 1 4.79653 2.87017 -5.37253 
1247 1 4.25067 4.38046 -5.85951 
2092 1 4.91673 3.85891 -6.17795 
112 1 5.74615 4.28809 -6.57248 
1338 1 5.18176 3.04721 -6.44012 
2088 1 4.81402 5.29737 -7.15496 
404 1 6.05489 3.01872 -6.61914 
131 1 6.56307 3.67207 -6.1751 
115 1 7.05901 3.46557 -5.25866 
122 1 7.18057 4.69406 -6.55451 
573 1 -7.15269 6.52055 -6.76506 
2142 1 -7.08643 5.63451 -6.93598 
3463 2 -4.74471 6.14297 -6.37166 
1481 1 -5.54413 5.68256 -6.94905 
2023 1 -5.07541 4.79079 -7.09293 
3471 2 -4.56539 5.42504 -6.42657 
1396 1 -3.29119 5.46065 -6.75594 
2376 1 -2.33348 5.03606 -6.08048 
1499 1 -1.71138 5.21939 -5.30395 
2832 2 -2.27154 5.79365 -7.05147 
1652 1 -1.68965 5.80118 -6.09934 
159 1 -1.37096 4.61029 -6.06103 
786 1 -1.73968 7.08769 -7.19028 
1521 1 -0.356593 5.00373 -6.49172 
1505 1 0.526278 5.34062 -5.72061 
2598 1 0.96048 5.40528 -5.04871 
345 1 -1.12148 5.37185 -6.66359 
2831 2 1.7686 4.98061 -6.07903 
686 1 2.49995 5.18336 -7.00988 
372 1 2.96243 5.3492 -6.20043 
295 1 3.25207 4.52734 -5.85369 
3215 2 4.01443 4.73409 -7.08794 
2790 2 3.83789 5.33637 -6.66515 
805 1 4.79604 4.89905 -6.16253 
16 1 5.11927 4.43244 -7.07392 
1295 1 4.85726 6.11542 -6.97523 
795 1 5.27983 6.44264 -6.2658 
1584 1 6.41439 4.63646 -6.20622 
248 1 6.57683 5.47494 -6.4034 
244 1 5.5644 5.25606 -6.43814 
2437 1 -6.4893 6.97513 -6.41652 
1616 1 -5.96268 6.66617 -5.84041 
3150 2 -4.86327 6.80822 -6.19551 
1004 1 -5.52583 6.70386 -6.95169 
1252 1 -3.3937 6.93965 6.6209 
2459 1 -3.88216 7.16926 -6.82146 
1631 1 -3.46518 5.34338 -5.72007 
964 1 -2.78297 5.83988 -5.98077 
3454 2 -2.63466 6.3814 -6.9486 
3268 2 -2.77359 7.05689 -6.57685 
2018 1 -1.60531 -6.6461 -6.649 
1665 1 -1.72732 -7.09086 -5.97759 
597 1 -1.43702 6.54352 -6.50521 
948 1 -0.610545 6.16364 -6.60411 
215 1 0.176194 5.70463 -6.53059 
2899 2 1.5478 5.80511 -6.06788 
2978 2 1.33805 6.61002 -5.79727 
430 1 1.28062 6.77167 -6.90137 
546 1 2.65752 6.01343 -6.55174 
1838 1 2.55355 5.94405 -5.53356 
2168 1 2.39628 6.69879 -6.07822 
3587 2 3.58984 6.95425 -6.5158 
3569 2 3.84425 6.17872 -6.72177 
1051 1 4.47316 7.19193 -5.93966 
274 1 6.01303 5.95319 -5.89957 
2160 1 4.69762 6.90013 -6.79554 
1530 1 5.81049 6.94975 -5.8025 
577 1 6.86054 6.82268 6.20495 
66 1 6.5235 6.38098 -6.33523 
878 1 -6.99531 6.32188 5.76434 
355 1 -5.86808 7.07362 -4.97929 
2747 2 -7.01928 6.43362 -5.479 
3487 2 -7.03326 -7.09993 -5.31474 
1551 1 -6.24528 -5.92515 -5.65952 
1872 1 -5.91055 -6.28186 -5.06086 
1246 1 -5.11301 7.03159 -4.94193 
2318 1 -5.21888 -6.52752 -4.66071 
278 1 -4.10243 -6.9407 -5.15844 
1730 1 -3.87963 -6.56611 -6.18452 
2453 1 -3.31972 -6.16531 -5.55744 
658 1 -2.14533 -5.13557 -5.36326 
3594 2 -1.23978 -6.17658 -4.92387 
3455 2 -1.04887 -6.87077 -5.23231 
2322 1 -0.863942 7.11688 -6.30513 
1435 1 -0.304455 -5.73026 -5.91842 
2826 2 1.04369 -6.1866 -5.45636 
3128 2 1.04963 -7.05306 -5.5327 
1425 1 0.988872 -5.65633 -4.08645 
2379 1 1.97447 -6.06336 -5.906 
1998 1 1.99403 -6.98575 -4.90946 
2113 1 2.52577 -6.69988 -5.57027 
2256 1 4.16046 -6.89336 -5.16618 
1075 1 3.17341 -6.60135 -4.96105 
329 1 4.34594 -6.36156 -6.07564 
3290 2 4.90577 -6.37768 -4.6685 
2926 2 5.17226 -7.1145 -4.72409 
144 1 5.93939 -5.78865 -5.56344 
168 1 5.93308 -6.45801 -5.1605 
318 1 -6.42396 -5.00264 -5.24875 
335 1 -5.69498 -5.55972 -4.67596 
3325 2 -5.42428 -4.97798 -5.62129 
2727 1 -4.30066 -4.11131 -5.50181 
2248 1 -3.9856 -5.64601 -5.25678 
1864 1 -4.58795 -6.21975 -4.64908 
1465 1 -3.05192 -5.35815 -5.23382 
2439 1 -2.35727 -3.67481 -5.18025 
2350 1 -2.43875 -6.06807 -5.1109 
909 1 -2.17814 -4.03957 -6.55739 
1836 1 -1.45217 -4.88348 -5.90001 
2626 1 -0.342609 -4.32128 -4.65115 
798 1 -0.12645 -5.11598 -5.18536 
3068 2 0.865524 -5.30688 -5.35391 
2768 2 0.786102 -4.59732 -5.35814 
799 1 1.88462 -6.02454 -4.79509 
2623 1 2.1965 -5.06132 -5.20685 
3249 2 3.07616 -4.564 -5.93727 
393 1 1.98764 -4.30555 -4.88553 
847 1 2.71073 -5.90557 -5.04855 
1416 1 3.85093 -6.0102 -5.24894 
1215 1 3.69643 -4.98932 -4.9561 
589 1 4.37209 -5.08885 -5.58519 
281 1 4.95046 -5.87825 -5.54994 
2825 2 4.74385 -5.59165 -4.44342 
2828 2 7.13268 -6.32737 -5.21919 
3010 2 6.75252 -5.65104 -4.9524 
1034 1 5.33656 -5.07652 -5.2045 
190 1 5.81542 -5.7002 -4.67408 
472 1 -6.59972 -3.78238 -5.34791 
587 1 -6.54748 -5.5445 -4.54664 
2912 2 -5.46793 -4.11639 -5.57997 
2737 2 -5.64781 -3.44816 -5.21629 
977 1 -4.50698 -3.2831 -5.69626 
874 1 -3.85253 -3.6713 -5.00029 
477 1 -3.65715 -2.65624 -4.86131 
1144 1 -4.37099 -4.91315 -4.95621 
1979 1 -3.53666 -4.56327 -5.21673 
2543 1 -2.78148 -2.89547 -5.28173 
2238 1 -0.847221 -4.28808 -5.45262 
250 1 -0.784875 -3.31411 -5.55217 
3285 2 -1.63073 -4.34104 -4.32996 
527 1 -0.658441 -2.46813 -5.49861 
2491 1 0.264721 -3.82564 -3.9581 
3430 2 0.396441 -3.06207 -5.02944 
3227 2 0.542383 -3.87826 -5.12552 
2537 1 1.75468 -4.18797 -5.81464 
40 1 2.79443 -4.01902 -4.80377 
1611 1 1.58533 -3.56725 -5.32216 
3014 2 2.78407 -3.82621 -5.92432 
388 1 3.99507 -3.84341 -5.86545 
480 1 3.6703 -4.0585 -5.09854 
1859 1 4.78313 -4.22932 -5.36987 
734 1 5.76715 -4.54111 -4.77635 
1472 1 5.5651 -3.75544 -5.16499 
1325 1 6.91265 -3.79422 -5.91191 
3080 2 6.85025 -4.78807 -4.9764 
831 1 -6.07762 -4.57897 -4.63539 
2106 1 -6.5586 -3.21187 -5.87994 
523 1 -6.53009 -3.45107 -4.36705 
2890 2 -5.59445 -2.69309 -5.04088 
1671 1 -4.5743 -2.31298 -4.78587 
2869 2 -3.59359 -2.53063 -5.83847 
2400 1 -3.96722 -1.82196 -4.5684 
1790 1 -3.03299 -1.95975 -4.95644 
1722 1 -1.45287 -3.75197 -5.47727 
1953 1 -2.28953 -1.65216 -5.32603 
1835 1 -3.17243 -1.97453 -3.91396 
842 1 -0.821819 -2.48488 -4.62224 
1028 1 -0.79714 -2.64181 -3.7053 
1738 1 -1.47804 -2.76835 -5.39776 
3354 2 0.172572 -2.40335 -4.75142 
1074 1 -0.00202253 -2.38146 -6.38719 
2558 1 1.3736 -2.73065 -5.41591 
2830 2 2.46422 -3.1004 -5.76669 
3356 2 2.47102 -2.30838 -5.40426 
2407 1 3.66611 -3.01043 -5.44552 
1313 1 3.76149 -2.17175 -5.7956 
110 1 4.05493 -1.76917 -4.80437 
169 1 3.29807 -2.30463 -4.57093 
2617 1 4.60384 -2.30954 -4.9467 
2360 1 5.65546 -2.32222 -5.26022 
148 1 6.48913 -2.00593 -5.7533 
2721 1 6.12853 -2.68206 -6.45238 
3173 2 6.77075 -3.92685 -4.88973 
1354 1 6.73429 -2.91176 -5.7739 
1151 1 -6.85819 -1.48943 -5.82074 
2974 2 -5.98014 -2.08407 -5.19903 
2993 2 -5.88224 -1.41719 -4.98141 
1445 1 -4.91473 -1.65621 -5.51314 
571 1 -6.17328 0.300195 -5.88331 
90 1 -5.70285 -0.550515 -5.76207 
2844 2 -3.65405 -1.72197 -5.90762 
3543 2 -3.79558 -1.17372 -5.4466 
2718 1 -2.08633 -3.19082 -5.93725 
2674 1 -3.2853 -1.09073 -4.31173 
900 1 -2.31457 -2.43814 -5.81783 
2077 1 -1.99806 -0.771569 -4.88706 
139 1 -0.667873 -1.63861 -5.61832 
871 1 -0.990532 -1.70124 -4.31304 
2465 1 -1.45817 -1.73805 -5.17215 
1380 1 -1.18706 -0.827427 -5.103 
2105 1 1.32399 -2.05764 -5.97838 
603 1 0.0333814 -1.00082 -5.44903 
3585 2 0.00222917 -1.57399 -4.45219 
1057 1 0.87861 -0.845353 -5.54992 
2178 1 2.03513 -1.83238 -6.43951 
1777 1 1.02255 -0.843912 -4.72798 
984 1 0.979795 -1.73369 -5.21537 
3557 2 2.17592 -1.51384 -5.38068 
3449 2 2.03542 -0.82357 -5.17989 
296 1 3.18247 -0.72427 -5.43962 
483 1 3.29546 -1.5367 -5.48818 
2995 2 4.25074 -0.0508812 -5.57087 
1830 1 3.9126 -0.820129 -4.80497 
1237 1 3.09646 -1.20728 -4.64187 
1648 1 5.89582 -1.31578 -5.60069 
1364 1 5.19795 -1.6431 -4.95051 
823 1 4.63212 -1.3306 -4.44494 
2641 1 -7.02285 -2.30869 -5.77306 
1207 1 6.65838 -1.0765 -5.39421 
3267 2 -6.19594 -0.711871 -4.81916 
2597 1 -7.04351 0.678749 -6.25616 
2297 1 -7.06671 0.132001 -5.59958 
1483 1 -5.8816 0.937033 -5.31361 
2578 1 -5.17374 -0.616404 -5.22353 
493 1 -5.33072 0.456334 -4.78875 
3256 2 -4.01552 -0.461094 -5.4854 
3144 2 -4.09212 0.257765 -5.27152 
743 1 -2.96236 -0.464913 -6.11244 
580 1 -2.85618 -0.701896 -5.30084 
2601 1 -2.88066 0.300314 -5.28478 
1002 1 -2.29354 0.120974 -4.73922 
2939 2 -1.88608 0.221955 -5.89055 
857 1 -1.54521 -0.00916137 -4.81614 
1484 1 -0.811435 0.602143 -5.39472 
1880 1 -0.743059 -0.253015 -5.50931 
1618 1 -0.00596714 0.968073 -5.12162 
1837 1 1.19875 -0.0736736 -5.87732 
84 1 1.28702 0.537041 -6.6107 
3383 2 1.95298 0.00117809 -4.94907 
1176 1 3.27631 0.573166 -6.15041 
3317 2 4.18127 0.736793 -5.28085 
2068 1 3.92742 -0.00704699 -4.34219 
873 1 5.31832 -0.742748 -5.21077 
1911 1 4.70315 -0.492328 -4.69602 
1895 1 4.79486 0.5039 -4.42052 
1340 1 6.1366 -0.382073 -5.31723 
346 1 5.53409 -0.900814 -6.23691 
1684 1 7.13273 -0.95607 -4.83837 
385 1 -5.96445 1.83567 -5.25802 
1369 1 -6.597 1.14972 -5.79053 
521 1 -5.29941 1.49553 -5.72155 
2383 1 -5.56697 1.33487 -4.48219 
330 1 -3.41402 1.10156 -5.48131 
2861 2 -4.3536 0.841691 -4.95445 
3062 2 -4.56452 1.65727 -4.84038 
1745 1 -2.89961 1.09832 -4.72553 
3117 2 -2.358 1.57524 -5.65045 
2846 2 -1.83959 0.997313 -5.70177 
1661 1 -1.20288 2.61672 -5.69456 
2285 1 -1.19949 1.92443 -5.15134 
400 1 -0.602905 1.5578 -4.97662 
640 1 -1.156 1.65598 -6.01732 
867 1 1.37762 1.51297 -6.20454 
1375 1 0.734965 1.5449 -5.28028 
3241 2 1.60514 1.61318 -4.54401 
673 1 2.07038 1.71867 -5.51841 
1432 1 0.903712 0.743086 -5.5709 
221 1 3.2069 1.64122 -5.98972 
614 1 2.70169 2.30532 -5.24256 
946 1 2.77273 1.47425 -4.61144 
2848 2 4.0912 1.47948 -5.42764 
3364 2 3.76238 2.11654 -5.12415 
850 1 5.42828 0.236052 -5.04534 
2584 1 6.76788 -0.0686785 -4.71143 
1568 1 6.27556 0.57658 -5.05845 
499 1 7.18619 0.999059 -5.26022 
928 1 -5.87516 2.59249 -4.87749 
491 1 -6.82867 2.77564 -5.04781 
2541 1 -5.62591 2.25036 -4.13033 
443 1 -5.11216 3.26324 -5.62038 
92 1 -5.97163 2.50359 -3.23014 
1224 1 -3.65709 2.72639 -5.49467 
141 1 -4.32939 3.27452 -5.77189 
2845 2 -4.58089 2.50623 -4.76361 
2523 1 -3.03483 1.43152 -6.42553 
1986 1 -3.55741 1.99318 -5.78646 
2945 2 -2.34252 2.2823 -5.44628 
1775 1 -1.14365 2.85299 -4.97145 
1512 1 -1.7809 1.94664 -4.57105 
3078 2 -0.0503059 1.9883 -5.83033 
75 1 -0.417784 2.47785 -4.87169 
2271 1 0.995543 3.44854 -5.67012 
225 1 1.81838 3.84741 -5.23136 
1098 1 1.70615 2.98771 -5.23095 
785 1 2.63041 2.41711 -4.4469 
1644 1 3.08477 2.37058 -3.73131 
3388 2 3.80086 2.82088 -4.76537 
3433 2 3.48241 3.60972 -4.80445 
2327 1 5.33065 1.11676 -5.32902 
2130 1 5.04855 1.90272 -5.42485 
1402 1 5.63548 2.17503 -4.5254 
2317 1 4.87206 2.31282 -4.6443 
2707 1 4.71528 3.18995 -4.49708 
1229 1 7.06113 2.89886 -6.15853 
3414 2 5.87506 2.69022 -5.53188 
3060 2 6.10164 1.95181 -5.80047 
2151 1 -6.80975 1.94511 -5.31526 
668 1 -5.92447 3.16495 -4.05131 
806 1 6.83656 2.60775 -5.03067 
297 1 -6.59181 3.79425 -4.87932 
1965 1 -5.3954 4.7428 -5.9837 
1232 1 -4.7592 5.05644 -5.42359 
2200 1 -5.74156 3.47778 -5.06577 
3456 2 -4.60939 3.34603 -4.62031 
59 1 -4.57509 4.19729 -5.52194 
1862 1 -3.67542 3.77322 -5.19907 
2275 1 -3.72388 4.11199 -4.36531 
2977 2 -2.29806 3.07887 -5.40982 
2865 2 -2.40656 3.84671 -5.05865 
1198 1 -1.2737 3.61892 -5.80503 
1089 1 -0.83333 4.69003 -4.45601 
46 1 -0.886002 3.71613 -4.77907 
3378 2 -0.242539 4.48003 -5.56049 
103 1 0.876261 4.59742 -5.59286 
620 1 0.610849 2.61042 -5.13133 
1763 1 0.64165 3.80671 -4.8966 
23 1 1.63528 4.67004 -5.10693 
1141 1 2.20333 5.09097 -4.02381 
504 1 2.57627 4.09121 -5.4908 
441 1 2.23514 4.47046 -4.46189 
2894 2 3.27461 4.36062 -4.75646 
1513 1 4.36655 4.81953 -5.17981 
3298 2 5.73867 3.46518 -5.37978 
1398 1 4.50617 3.80199 -5.18776 
2917 2 5.65307 4.19645 -5.24953 
1200 1 6.57032 3.38166 -4.54807 
13 1 6.79425 4.3594 -5.31939 
817 1 6.7528 1.7515 -4.84804 
3045 2 -6.56134 4.10646 -5.86834 
822 1 -5.53751 4.21077 -5.24606 
1490 1 -5.90041 5.16535 -4.99794 
1939 1 -6.89995 5.028 -4.60937 
3147 2 -6.69363 4.84563 -5.68669 
2573 1 -5.803 5.48511 -6.10669 
1893 1 -4.98741 5.93813 -5.27327 
1725 1 -3.68021 4.63569 -5.18475 
1619 1 -3.11189 4.31575 -5.94675 
1691 1 -4.0508 5.72151 -5.3138 
3458 2 -2.62484 4.61777 -4.89927 
2988 2 -2.68384 5.37779 -4.80283 
246 1 -1.30285 5.61666 -4.45399 
1577 1 -1.87538 6.09975 -5.12799 
894 1 0.0492024 5.37789 -4.54353 
3392 2 -0.566755 5.36537 -5.427 
586 1 1.96254 5.54499 -4.76561 
2096 1 0.103221 6.4146 -4.65404 
2392 1 2.19588 5.97873 -3.79535 
1422 1 1.6178 6.81068 -4.36489 
492 1 2.59693 4.95237 -5.33846 
2814 2 3.29605 5.2674 -4.575 
486 1 3.32289 6.1303 -5.52712 
862 1 3.71089 5.18516 -5.57144 
302 1 4.14216 5.66956 -4.90455 
2669 1 4.6727 5.08221 -4.36784 
2927 2 5.4767 4.98177 -5.24891 
1667 1 6.55721 5.2689 -5.41585 
2136 1 6.057 5.93566 -4.25739 
610 1 -6.34771 5.69557 -4.58036 
3330 2 -6.84598 5.67507 -5.69029 
2191 1 -6.04412 6.47918 -4.58753 
2045 1 -6.24855 6.18482 -6.53647 
1885 1 -5.80853 6.07242 -5.28277 
1718 1 -3.77299 7.02656 -5.95221 
1733 1 -3.57304 6.10926 -6.10697 
2332 1 -4.26151 6.62568 -5.24359 
1394 1 -2.28442 6.53644 -5.7372 
2033 1 -3.1356 -7.0778 -5.60092 
101 1 -2.31498 -6.93089 -5.30667 
3207 2 -0.801631 6.18253 -5.55041 
897 1 -2.09924 6.9061 -4.80661 
3018 2 -0.968124 6.7549 -5.0756 
2630 1 0.288627 6.27498 -5.58346 
1567 1 -0.0232403 -6.18171 -5.30266 
849 1 0.772052 7.0842 -4.55952 
825 1 0.985777 6.24366 -4.8464 
1382 1 3.56434 7.01067 -5.41163 
2564 1 2.52709 6.79941 -5.3088 
696 1 2.09487 6.29828 -4.86428 
224 1 4.20868 6.31949 -5.61175 
1992 1 4.85793 5.71496 -6.11248 
3257 2 5.32553 5.76884 -4.98282 
2971 2 5.3249 6.55537 -4.96471 
1320 1 6.35651 7.08831 -5.08076 
2539 1 6.35241 6.28095 -5.11246 
2051 1 -6.47638 -6.99052 -3.37216 
1994 1 -6.47927 -6.55737 -4.50282 
1673 1 -6.34472 6.51695 -3.08582 
3228 2 -5.71382 -6.16873 -3.81463 
3469 2 -5.52732 -7.02438 -3.66935 
2089 1 -4.39094 -6.99395 -4.26102 
2496 1 -2.92783 -6.61183 -3.10417 
2835 2 -3.09226 6.7277 -4.77627 
3413 2 -3.25791 -6.84359 -4.39446 
104 1 -2.21149 -6.46746 -4.28152 
1086 1 -2.39937 -5.48269 -4.46131 
356 1 -1.67633 -7.00081 -4.06786 
2524 1 -1.45087 -6.1662 -3.757 
1107 1 -0.895596 -7.12248 -3.92939 
1881 1 -0.550411 -6.1878 -3.97571 
2038 1 0.179783 -6.00426 -4.47846 
1967 1 1.7157 -5.22347 -4.44309 
635 1 0.80197 -6.43899 -4.40461 
1511 1 1.62173 -5.91262 -3.32405 
1211 1 1.62893 -6.43842 -4.08309 
3303 2 2.66328 -6.18858 -3.90404 
2918 2 2.5726 -5.3378 -3.82361 
2172 1 3.95061 -6.84167 -4.23789 
709 1 3.79965 -6.16392 -3.9479 
451 1 3.41527 -6.02095 -3.22086 
440 1 5.51135 -6.48615 -2.86711 
2025 1 5.51687 -6.50162 -2.01154 
779 1 5.48321 -6.28228 -3.821 
677 1 5.38123 -5.50525 -3.38877 
1442 1 5.19405 7.06447 -3.3819 
929 1 7.15178 -6.87311 -4.11323 
3179 2 6.90703 6.71052 -3.34078 
1312 1 -7.07042 -6.08464 -3.85939 
1013 1 6.82723 -5.14927 -3.83752 
1955 1 -4.55409 -6.47962 -3.62556 
2896 2 -5.99147 -4.77453 -3.14836 
3375 2 -5.99843 -5.51195 -3.59826 
992 1 -3.75863 -6.90907 -3.18812 
138 1 -4.55257 -5.60534 -3.45015 
1299 1 -4.82767 -5.4722 -4.32329 
3562 2 -3.43016 -6.04207 -4.38261 
3536 2 -3.55319 -5.29386 -4.14367 
959 1 -2.67641 -4.28186 -4.10298 
1470 1 -2.74077 -4.66546 -4.85507 
3322 2 -0.951906 -5.54146 -4.82794 
3480 2 -1.39551 -4.9738 -4.74291 
647 1 -1.85211 -5.38228 -3.59026 
708 1 -0.97925 -5.23357 -3.62674 
1799 1 0.871552 -4.16624 -3.6464 
26 1 0.57132 -4.80034 -4.32135 
247 1 1.4174 -4.09521 -4.36554 
1327 1 1.20117 -4.94223 -3.57122 
1069 1 1.29851 -4.8176 -2.69768 
3379 2 2.37141 -4.5122 -3.70458 
3230 2 2.01158 -3.87024 -3.52279 
1695 1 3.41822 -5.72436 -4.62701 
1863 1 2.75423 -5.11866 -4.77501 
2469 1 3.61757 -5.12287 -3.79288 
3340 2 4.67901 -4.83746 -4.32704 
767 1 5.10745 -4.81391 -2.76449 
1493 1 5.86505 -5.12215 -3.98257 
1000 1 6.41439 -6.82736 -4.43966 
2571 1 6.25695 -5.99702 -3.99865 
935 1 -5.67671 -3.91468 -4.22052 
1182 1 -6.69537 -4.62046 -4.11574 
1609 1 -4.83087 -4.15497 -4.65854 
517 1 -5.20711 -4.80552 -4.07768 
1285 1 -4.72862 -3.30951 -4.76154 
3376 2 -3.79261 -4.63173 -4.11457 
3083 2 -3.8114 -3.82527 -3.85247 
1928 1 -3.06385 -3.75696 -4.70143 
2083 1 -2.71741 -3.5101 -3.74182 
401 1 -2.00442 -4.36165 -3.38022 
1945 1 -0.597878 -3.42973 -4.66849 
728 1 -0.587653 -4.47552 -3.71119 
1629 1 -1.03978 -3.84832 -3.25625 
1747 1 -0.331433 -5.26999 -4.13809 
27 1 0.89577 -3.31107 -3.64813 
632 1 1.16385 -3.81862 -2.85311 
566 1 1.29226 -3.23202 -4.35523 
2306 1 2.21905 -3.51404 -4.59162 
891 1 3.39276 -4.28012 -4.10179 
3015 2 2.08454 -3.04376 -3.48234 
665 1 3.17375 -3.14994 -4.6698 
1653 1 3.18203 -3.39911 -3.89123 
3244 2 4.39076 -4.03738 -4.30012 
2857 2 4.2591 -3.24039 -4.25927 
153 1 4.67631 -3.31138 -5.22826 
2211 1 5.82053 -3.05015 -5.7469 
2336 1 5.34695 -4.37285 -3.52093 
72 1 5.57674 -3.81018 -4.22703 
85 1 6.45401 -4.38021 -3.79342 
316 1 6.39612 -3.28489 -3.69148 
960 1 -6.62394 -2.43522 -4.26735 
1999 1 -5.75363 -2.73149 -3.99701 
2388 1 -5.19572 -2.07816 -4.28416 
1071 1 -5.25847 -2.95798 -3.12535 
1514 1 -5.3152 -1.05375 -4.14457 
3229 2 -4.08631 -3.01633 -3.79014 
3447 2 -4.25019 -2.21022 -3.58411 
1446 1 -2.86801 -2.92574 -4.37678 
904 1 -3.06889 -2.72713 -3.32058 
3198 2 -1.90661 -2.72866 -4.43707 
969 1 -1.26209 -2.01766 -3.28707 
1431 1 -1.35232 -2.94499 -3.14052 
2916 2 -1.67542 -3.53363 -4.35451 
15 1 -0.556344 -3.43867 -3.9042 
2044 1 0.142064 -2.97231 -3.94283 
202 1 1.06581 -2.27718 -4.01697 
1843 1 1.45461 -2.37184 -4.69995 
2298 1 1.71625 -1.55648 -4.32735 
1385 1 2.90059 -2.48235 -3.63646 
303 1 2.25343 -2.69468 -4.40629 
506 1 2.81673 -1.52459 -3.19345 
3353 2 4.24923 -2.63648 -3.91707 
2411 1 5.33385 -2.99444 -4.80228 
1658 1 5.5697 -3.00027 -3.96274 
1145 1 -7.17719 -3.989 -3.72308 
2858 2 6.62262 -3.13244 -4.76436 
1595 1 7.15498 -2.86849 -3.85488 
1841 1 -6.9755 -1.18729 -3.98287 
1627 1 -6.02711 -0.991547 -3.67868 
194 1 -7.00211 -1.79399 -4.91697 
52 1 -5.40199 -2.08346 -3.48601 
56 1 -5.55698 -0.19617 -3.7777 
1428 1 -6.20014 -1.71405 -3.97241 
1027 1 -4.83054 -1.48162 -4.64143 
1316 1 -4.26924 -0.917744 -4.45624 
827 1 -3.68838 -0.0487367 -3.31599 
2302 1 -3.37885 -0.957505 -3.5368 
2766 2 -1.96427 -1.85024 -4.21708 
2748 2 -2.16561 -1.03347 -3.84109 
2241 1 -0.853266 -1.1997 -3.45957 
3500 2 -0.154938 -0.741621 -4.47673 
2395 1 -0.258758 -1.929 -3.50211 
2187 1 1.67727 -0.739006 -3.99648 
922 1 2.57006 -1.77486 -4.0893 
130 1 2.95096 -0.237419 -4.54084 
3134 2 3.82688 -1.98172 -3.69757 
2914 2 3.7653 -1.23129 -3.68067 
1548 1 5.19788 -2.13288 -4.10522 
234 1 4.87707 -1.09705 -3.70569 
2054 1 -7.10779 -1.93751 -3.758 
2433 1 6.58845 -1.71527 -3.22997 
3116 2 6.49819 -2.27814 -4.53559 
2856 2 6.24379 -1.57157 -4.30489 
3186 2 -6.3918 -0.0468188 -4.88242 
253 1 6.95479 -0.525136 -4.09429 
2300 1 -6.6516 -0.296539 -3.61407 
896 1 -6.95334 0.950495 -3.23827 
408 1 -5.53845 0.723554 -3.74498 
2278 1 -5.03662 -0.261328 -4.44871 
2132 1 -3.96948 -0.10765 -4.11222 
1793 1 -3.89238 0.778651 -3.60885 
2605 1 -3.21726 -0.222261 -4.63346 
2789 2 -2.41216 -0.422323 -3.48437 
1531 1 -1.29123 -0.635273 -4.07997 
1910 1 -1.49235 0.327138 -4.02559 
2 1 -1.04547 -0.104 -3.37082 
3555 2 -0.418856 -0.0455145 -4.3147 
2950 2 -0.378964 0.651538 -4.20771 
2542 1 -0.0171491 -0.808322 -3.34522 
851 1 0.343424 0.0939397 -5.23503 
1700 1 2.33752 -0.16371 -3.54045 
858 1 0.949566 -0.030246 -4.54996 
2237 1 1.36162 0.239601 -3.81136 
3443 2 1.83011 0.746082 -4.69544 
692 1 2.83143 -0.721347 -2.82645 
886 1 2.80676 0.531004 -3.8317 
414 1 3.25022 0.278381 -5.27875 
3483 2 3.69631 -0.457835 -3.44793 
3305 2 3.53947 0.28165 -3.14057 
319 1 4.68907 -0.154981 -3.89163 
2819 2 5.88817 0.151565 -3.89373 
840 1 4.64815 1.02039 -3.0874 
34 1 6.99224 0.249485 -3.66453 
720 1 6.47047 0.277338 -3.07149 
2902 2 5.83296 -0.77747 -4.22575 
3263 2 -6.53503 0.601674 -4.41911 
3260 2 -6.66261 1.46058 -4.19657 
1815 1 -4.66012 0.592622 -3.94212 
2423 1 -6.30029 0.554888 -3.2491 
829 1 -5.93855 1.49519 -3.4859 
2177 1 -3.64228 1.33758 -4.18106 
697 1 -3.44774 0.628403 -4.32767 
2529 1 -2.1492 1.05487 -4.45779 
3490 2 -2.62198 0.193687 -3.74077 
3588 2 -2.57405 0.929969 -3.40071 
2663 1 -1.56902 1.35036 -3.74283 
154 1 -1.36034 0.959797 -4.70302 
2647 1 -1.59413 1.87832 -2.87024 
1971 1 0.519849 1.75256 -3.96905 
2860 2 -0.77322 2.03427 -3.82561 
3196 2 -0.537445 1.31594 -3.94786 
2406 1 0.610361 0.821398 -4.45072 
1337 1 1.44701 1.58193 -3.28061 
583 1 0.355251 2.74909 -3.82876 
2722 1 2.62684 1.46029 -3.75108 
941 1 4.08103 0.862869 -3.90541 
2637 1 3.3612 0.760503 -4.41682 
2021 1 4.87349 1.44613 -4.66392 
3209 2 5.5552 1.00988 -3.87601 
3369 2 5.32117 1.68887 -3.39797 
654 1 6.73021 0.798113 -4.36281 
510 1 6.3743 1.72936 -4.07155 
1781 1 6.75584 1.22278 -3.50069 
3033 2 -6.72743 2.1857 -4.02042 
500 1 -4.90073 1.4041 -3.78021 
2448 1 -6.54597 2.51833 -2.55263 
412 1 -4.81889 2.3603 -3.60871 
1169 1 -5.11021 4.29451 -3.23311 
2436 1 -3.52729 1.93871 -4.99734 
120 1 -3.62355 2.48194 -4.19973 
2490 1 -2.81932 1.8385 -4.33707 
2466 1 -3.22391 3.1589 -4.81349 
892 1 -1.96158 2.10464 -3.73452 
2489 1 -1.06652 2.48524 -2.68687 
1056 1 -1.61255 3.8932 -4.39332 
2708 1 0.236538 1.91878 -4.68618 
3006 2 -0.668919 2.84197 -3.8218 
2328 1 0.685701 3.39236 -3.17217 
3063 2 1.52898 2.28889 -4.29658 
3479 2 1.37027 3.11509 -4.2616 
2575 1 1.07986 2.41283 -3.23738 
1677 1 2.48867 3.11535 -3.69652 