ITEM: TIMESTEP
48100
ITEM: NUMBER OF ATOMS
3594
ITEM: BOX BOUNDS pp pp pp
-7.2062209456171376e+00 7.2062209456171376e+00
-7.2062209456171376e+00 7.2062209456171376e+00
-7.2062209456171376e+00 7.2062209456171376e+00
ITEM: ATOMS id type x y z 
1410 1 -6.2504 -6.51506 -6.40218 
239 1 -5.58242 -7.19116 -6.95558 
335 1 -5.59732 -6.24154 -6.95236 
3477 2 -4.85431 -6.74197 -6.01042 
3520 2 -5.18057 -6.07672 -5.79354 
1906 1 -4.84123 -6.56857 -7.18506 
2248 1 -3.82945 -6.45563 -6.03777 
418 1 -4.19791 -6.95707 -6.75818 
2944 2 -2.62349 -6.84835 -6.63832 
3574 2 -2.84352 -6.10401 -6.65973 
1893 1 -1.6261 -6.5737 -6.25204 
2630 1 -1.79913 -5.73818 -6.56843 
1567 1 -1.50886 -7.02909 -7.07502 
2083 1 -0.82468 -6.34576 -6.10604 
1323 1 0.0609895 -6.36899 -6.34938 
2246 1 1.41409 -6.11145 -6.84428 
748 1 1.61612 -6.9687 -6.9713 
2627 1 0.710645 -6.66815 -7.08523 
1425 1 2.12513 -6.03479 -6.18327 
3442 2 3.34188 -5.86799 -6.18925 
313 1 2.39443 -6.21335 -7.06728 
3587 2 3.36961 -6.72378 -6.43675 
1970 1 4.54296 7.15243 -7.02426 
589 1 4.40593 -6.10421 -6.54251 
3208 2 5.6892 -6.51592 -6.90633 
916 1 4.75484 -6.83978 -6.09552 
1345 1 6.5525 -6.45939 -6.20009 
760 1 -7.04773 -6.6409 -6.68563 
1399 1 -7.05767 -5.91813 -6.51366 
1473 1 -6.03442 -5.48654 -6.70729 
2546 1 -4.9771 -5.60093 -6.92147 
1640 1 -5.53173 -4.62958 -6.936 
2018 1 -4.06325 -6.0505 -7.08303 
1020 1 -4.69277 -4.78828 -6.65299 
472 1 -4.14685 -5.67584 -6.43424 
2981 2 -3.04051 -5.37579 -6.31144 
1730 1 -2.06624 -5.3408 7.17473 
3484 2 -0.75786 -5.31596 -6.9304 
890 1 -2.09159 -4.72162 -6.65829 
2626 1 -1.05482 -5.49958 -5.90161 
533 1 -0.0457126 -5.48168 -6.17467 
1122 1 0.582229 -4.8267 -6.49269 
1587 1 0.726701 -5.75696 -6.74515 
1442 1 1.38165 -5.11726 -6.52754 
2957 2 2.89121 -5.21469 -6.29026 
779 1 2.03758 -5.27858 -6.87989 
2933 2 2.89927 -4.58679 -6.03653 
893 1 4.04723 -5.31337 -6.64744 
2812 2 5.47491 -5.8468 -7.04573 
3212 2 5.25266 -4.94892 -6.90328 
1322 1 4.90001 -5.38713 -5.98128 
2200 1 6.61544 -5.60575 -6.78916 
572 1 7.19514 -4.93819 -6.25733 
639 1 6.30497 -4.75465 -7.15281 
1273 1 6.16782 -5.51147 -6.04463 
153 1 6.22416 -4.40401 -6.06701 
1654 1 -6.33218 -4.37076 -6.40545 
2727 1 -6.46092 -3.40059 -6.22041 
1483 1 -5.83488 -3.91724 -6.87263 
1835 1 -4.92915 -3.96924 -6.64454 
2301 1 -4.00425 -4.26536 -6.84662 
139 1 -3.60492 -3.44183 -7.11234 
3061 2 -3.20246 -4.54741 -6.29958 
3041 2 -3.30839 -3.8193 -6.02786 
1822 1 -2.15842 -4.2589 7.10683 
1629 1 -2.0783 -3.81046 -6.24674 
985 1 -2.27031 -3.13167 -6.79181 
2808 2 -0.970202 -4.53287 -6.96743 
3332 2 -1.12781 -3.67431 -6.7568 
1313 1 -0.178434 -4.44332 -6.09755 
1859 1 0.0388856 -3.4001 -7.01683 
103 1 0.0876028 -4.14035 -7.02455 
2520 1 0.855193 -3.98999 -6.3742 
566 1 1.64668 -3.44405 -6.29907 
1997 1 1.88385 -4.25882 -6.46264 
1897 1 2.3761 -3.52411 -6.9183 
1648 1 3.25168 -4.2395 -7.01162 
2539 1 3.99975 -4.55636 -6.26855 
1372 1 3.80519 -3.76692 -6.30435 
205 1 3.97799 -3.45367 -7.02827 
3266 2 5.0891 -4.21088 -6.67846 
2767 2 4.97857 -3.40954 -6.42236 
1918 1 6.25992 -3.89894 -7.02595 
1373 1 7.03298 -4.03335 -6.32739 
2015 1 -6.84275 -2.56169 -5.93742 
3126 2 7.16312 -2.94155 -7.09808 
2360 1 -6.0805 -2.59015 -6.38735 
519 1 -6.15616 -2.92823 -7.13069 
90 1 -5.24859 -3.09351 -6.59237 
936 1 -4.90103 -2.33072 -6.33405 
2869 2 -3.37374 -3.08828 -5.95473 
18 1 -4.20402 -2.00274 -6.73923 
2381 1 -4.40957 -3.02053 -6.70334 
2844 2 -3.54845 -2.38585 -5.988 
911 1 -3.05116 -2.66542 -7.11802 
743 1 -2.45624 -2.41479 -6.28639 
3234 2 -1.16442 -2.82688 -6.44381 
3105 2 -1.41665 -1.91276 -6.20532 
1489 1 -0.278385 -2.32622 -6.79291 
2298 1 0.52484 -2.29405 -5.93217 
2187 1 -0.24453 -2.6529 -5.94367 
1644 1 0.500687 -3.29912 -6.15024 
2804 2 0.824725 -2.14648 -6.9009 
3347 2 1.01479 -2.86795 7.152 
1418 1 1.91987 -1.83419 7.07898 
2600 1 2.20918 -2.63304 -6.45779 
2050 1 2.93803 -2.39235 -6.62031 
190 1 3.13337 -3.18067 -6.66275 
309 1 4.05046 -1.97188 -7.06092 
362 1 3.91224 -2.61259 -6.60617 
1029 1 5.67195 -2.17483 7.15808 
3550 2 4.92355 -2.69203 -6.12532 
2415 1 5.78625 -2.17992 -6.41246 
1597 1 6.06448 -3.0779 -6.65133 
3087 2 7.1158 -2.2603 -6.73406 
346 1 6.14925 -2.69798 -5.83207 
923 1 -6.69905 -1.22826 -6.85133 
41 1 -6.4748 -1.70273 -6.15066 
2892 2 -5.54457 -1.28141 -7.03655 
2560 1 -5.71924 -1.89626 -6.18583 
874 1 -4.74596 -1.35597 -6.10824 
2320 1 -4.2853 -1.12104 -6.9416 
571 1 -3.39405 -1.84862 -6.90225 
2601 1 -3.44097 -0.991089 -6.59751 
1928 1 -2.73433 -1.50093 -6.48739 
323 1 -2.48455 -0.986192 -7.07131 
2013 1 -2.89402 -0.930444 -5.73285 
3200 2 -1.77373 -1.27771 -6.19147 
154 1 -0.414212 -1.53914 -6.22092 
3088 2 0.385967 -0.661431 -6.69451 
2609 1 -0.713813 -0.940989 -5.73615 
3151 2 0.555505 -1.35156 -6.57769 
1695 1 1.717 -1.82727 -6.40801 
1708 1 1.22566 -0.935615 -5.92202 
308 1 1.92823 -0.85131 -6.54749 
151 1 1.42583 -0.983193 6.97119 
1843 1 2.72809 -1.4672 -6.5059 
675 1 4.84775 -1.2867 -7.02693 
1981 1 3.74103 -1.14216 -6.79639 
847 1 3.50387 -1.79117 -6.33052 
453 1 4.89862 -2.05514 7.13174 
303 1 5.46227 -1.24809 -6.39352 
2840 2 6.64658 -1.63104 -6.6376 
2797 2 6.56666 -0.918738 -6.43832 
1883 1 -6.84214 -0.230415 -6.68701 
1446 1 -6.77587 0.0325458 -5.77212 
3097 2 -5.63299 0.212968 -6.69946 
3360 2 -5.55039 -0.468064 -6.9619 
1781 1 -4.91634 -0.527306 -5.94797 
1001 1 -4.40048 -0.420446 -6.57868 
2326 1 -3.67416 -0.0981781 -6.28329 
2318 1 -4.43412 0.389853 -6.37803 
408 1 -3.13863 0.693372 -6.19289 
1255 1 -2.71708 -0.293158 -6.76514 
1485 1 -0.746543 -0.772507 -6.78595 
2390 1 -1.55763 0.313944 -6.84549 
2796 2 -1.80394 -0.535372 -5.92735 
502 1 -0.830563 0.93518 -6.49317 
3311 2 0.308666 0.103595 -6.68561 
867 1 1.54811 -0.156392 -7.06499 
1218 1 2.91502 -0.601157 -6.2044 
110 1 2.06641 0.151972 -6.17371 
2062 1 3.38946 0.444985 -6.274 
1824 1 3.5585 -0.277798 -6.67661 
2418 1 4.55468 -0.241685 -6.7039 
2122 1 5.80804 -0.502847 7.2061 
1156 1 5.32565 -0.31274 -6.54519 
312 1 6.0663 0.537213 -7.1146 
3135 2 6.47585 -0.178958 -6.20004 
3038 2 6.45536 0.613423 -5.99375 
3007 2 -5.89227 1.70545 -6.46399 
2037 1 -7.07202 1.64114 -6.18108 
3127 2 -5.83374 0.94366 -6.69851 
2386 1 -6.86547 1.7938 -7.12714 
718 1 -6.90837 0.854098 -6.65939 
1154 1 -4.72779 1.39358 -6.52767 
415 1 -4.75824 0.958213 7.20103 
1232 1 -3.86239 1.24382 -6.13064 
2081 1 -2.34952 0.676601 -6.98783 
2275 1 -2.72234 1.5373 -6.55185 
1265 1 -1.97458 1.97855 -6.77207 
343 1 -1.6753 1.30526 -6.48075 
1971 1 -0.682003 1.96064 -6.88366 
2928 2 0.389795 0.935539 -6.57386 
855 1 1.46961 1.44953 -6.51047 
1998 1 2.03938 1.00783 -5.7874 
2522 1 1.43865 0.596119 -6.70306 
3459 2 2.53643 0.674746 -6.97078 
3393 2 2.33944 1.49396 -6.83183 
795 1 4.15407 0.467221 -6.64207 
171 1 3.51637 1.66374 -6.26973 
1388 1 3.55069 1.2108 -7.05192 
591 1 4.54589 1.25689 -6.31356 
199 1 5.26613 0.744391 -6.50984 
2066 1 5.48308 1.38524 -6.93244 
2353 1 6.58446 1.38706 -7.02625 
3140 2 -6.15148 2.38663 -6.51001 
3465 2 -6.49783 3.13031 -6.62846 
2685 1 -5.40504 3.01161 7.13736 
1476 1 -4.98367 1.84911 -7.08101 
536 1 -5.02201 2.60216 -6.70854 
565 1 -4.288 2.25378 -6.0438 
3093 2 -3.96147 2.39801 -7.08492 
686 1 -2.91173 2.37237 -6.38429 
2042 1 -1.84337 2.6743 -6.49791 
2466 1 -2.72814 3.23063 -6.53482 
1525 1 -1.07191 2.03892 -5.92452 
287 1 -0.939708 2.7272 -6.89831 
3078 2 0.255473 1.78747 -6.30989 
3444 2 -0.0651516 2.47069 -5.96352 
1773 1 1.16161 2.19137 -6.50384 
3417 2 2.33671 2.25491 -6.825 
3478 2 2.09526 3.00644 -6.79366 
941 1 2.93314 2.21962 -5.76241 
1677 1 4.09321 2.40355 -6.23071 
2530 1 3.21399 2.87777 -6.32151 
32 1 3.41503 2.29838 -6.98595 
1414 1 4.97618 2.01703 -6.14794 
2338 1 5.36377 2.51168 -6.62125 
2142 1 4.92551 3.13927 -6.18293 
478 1 6.09822 2.35358 -7.02233 
2724 1 6.91202 3.25953 -6.91743 
2061 1 6.06581 3.24914 -6.76569 
1185 1 6.94425 2.38912 -6.75943 
2736 2 -6.35088 3.77613 -6.20638 
3238 2 -6.59834 4.47608 -6.00139 
2327 1 7.16309 4.3156 -6.99368 
2594 1 -5.48499 3.81842 -7.15441 
964 1 -5.30448 3.44975 -6.48236 
754 1 -5.34979 4.54627 -6.02823 
2783 2 -3.99656 3.22281 -7.00614 
3408 2 -4.20475 3.95589 -6.74381 
2229 1 -3.36457 4.03813 -5.97542 
341 1 -2.72778 4.53599 -6.22267 
1098 1 -2.10717 3.75243 -6.27343 
507 1 -3.06445 4.03938 -6.93551 
673 1 -1.34194 3.27937 -6.17521 
2524 1 -1.77862 4.40218 -5.91161 
2285 1 -1.16018 4.1383 -6.39413 
945 1 -0.76116 3.44854 -7.08844 
2271 1 0.0557494 3.14885 -7.12597 
1663 1 0.581575 3.80208 -6.69191 
215 1 0.0538925 4.44452 -6.73297 
1932 1 1.01083 3.11345 -6.16934 
3466 2 1.8321 3.75832 -6.53372 
3138 2 1.6605 4.54235 -6.33369 
2261 1 3.33057 4.02201 -6.18264 
1516 1 3.06072 3.41471 -7.12552 
1978 1 2.7342 4.2414 -6.79339 
3551 2 4.09394 3.87399 -7.13377 
2765 2 4.26411 2.95886 7.16498 
2379 1 3.84577 4.46985 -5.77426 
1965 1 4.74126 4.16221 -6.33297 
339 1 5.78211 4.13234 -6.69528 
1758 1 5.16169 3.47943 -6.89233 
2597 1 6.69208 3.90182 -6.34467 
34 1 6.93802 3.16052 -5.95646 
2707 1 6.76909 4.53336 -5.74626 
3045 2 -6.66755 5.19069 -5.84308 
862 1 -6.0481 5.52694 -6.81888 
292 1 -6.55205 5.02458 7.12072 
1727 1 -5.57199 4.61923 -6.77206 
3471 2 -4.68058 5.43002 -6.50489 
2440 1 -5.63444 5.36651 -6.07442 
1512 1 -3.4731 4.95873 -6.09349 
966 1 -3.30036 4.9385 -6.97998 
3411 2 -4.38 4.76462 -6.52076 
1481 1 -3.61686 5.97863 -6.69234 
1391 1 -3.19901 5.77411 -5.9182 
1344 1 -2.52072 5.26341 -5.77473 
2832 2 -2.27123 5.22504 -6.98765 
225 1 -1.38223 5.32321 -6.21791 
1506 1 -1.05181 5.84459 -6.88741 
2675 1 0.421268 5.19025 -6.48316 
282 1 -0.216116 5.66018 -6.57831 
1747 1 -0.706494 4.91861 -6.70345 
2831 2 1.5636 5.39224 -6.07518 
1068 1 2.60952 5.14561 -6.54228 
1889 1 2.38177 5.85009 -6.96503 
3223 2 3.70896 4.63919 -7.03947 
3215 2 3.61089 5.3631 -6.78685 
1311 1 4.62146 5.56142 -5.85763 
1871 1 5.6768 4.92874 -6.49168 
865 1 4.82073 5.01355 -6.40312 
1616 1 6.56562 4.95014 -6.47402 
2701 1 7.14954 5.30595 -6.98184 
1341 1 6.42449 5.83941 -6.11849 
1117 1 -6.62328 6.88245 -6.82596 
317 1 -6.7395 6.09118 -6.95035 
3150 2 -4.90041 6.82065 -6.19831 
2706 1 -5.82295 6.2867 -6.7975 
942 1 -6.07465 6.44155 -5.97168 
3463 2 -4.64912 6.13427 -6.21103 
2446 1 -3.70987 6.68334 -7.10372 
392 1 -3.61313 6.95719 -6.13678 
3454 2 -2.36385 6.015 -6.97034 
3268 2 -2.60579 6.80979 -6.80993 
1984 1 -1.37353 6.58965 -6.6788 
1643 1 -0.448269 6.325 -6.21825 
1881 1 -1.73061 7.03031 -5.88859 
1093 1 -0.866392 7.20184 -6.21177 
1850 1 -0.0371895 7.09981 -6.36727 
1935 1 0.512348 6.42997 -6.76976 
2899 2 1.39461 6.24294 -5.92738 
255 1 1.71147 6.43257 -6.95462 
2978 2 1.1976 7.055 -5.975 
1167 1 0.93598 6.98211 7.1007 
703 1 2.45844 6.52013 -6.37743 
849 1 2.14136 -6.89638 -6.2935 
2790 2 3.83101 6.07433 -6.59061 
3569 2 3.6096 6.94917 -6.51069 
2787 2 5.62492 7.18715 -6.88612 
1681 1 5.44621 5.9084 -6.31015 
452 1 6.09698 6.56955 -6.10259 
924 1 4.91731 6.54762 -6.28615 
2678 1 4.78552 6.02718 -6.98518 
522 1 5.46999 6.94716 -5.86246 
829 1 6.66361 6.22155 -6.83361 
610 1 6.70687 7.04328 -6.49831 
1263 1 -6.08879 -7.1561 -5.93713 
2747 2 -7.11734 -7.06834 -5.50038 
695 1 -6.24568 -6.06251 -5.70613 
1291 1 -5.93937 -6.4178 -5.08018 
698 1 -5.13672 -6.41866 -4.89316 
1149 1 -4.59571 -7.04704 -4.55346 
2002 1 -4.25882 7.06249 -5.30974 
2674 1 -4.17994 -6.49943 -5.13911 
197 1 -3.21616 -6.92774 -5.67493 
1979 1 -2.37749 -7.13441 -5.3454 
1435 1 -2.09229 -6.33266 -5.65503 
2835 2 -3.42756 7.12459 -4.6299 
3594 2 -1.1837 -6.41088 -5.01091 
3455 2 -0.869467 -7.20267 -5.0666 
1385 1 0.0213395 -6.50956 -5.56594 
1422 1 -0.0284956 -6.1889 -4.549 
2453 1 0.484825 -7.19615 -4.65537 
3128 2 1.06938 -6.54084 -5.68318 
2238 1 1.68429 -6.79434 -4.67152 
2491 1 2.20026 -6.62674 -5.29973 
1234 1 2.56051 -5.9025 -5.23363 
811 1 3.0531 -6.83286 -5.48625 
932 1 4.17533 -6.54258 -5.74983 
1416 1 3.32247 -6.17812 -5.08219 
1019 1 3.92458 -5.86672 -5.44477 
2825 2 4.95001 -6.28076 -4.8182 
98 1 5.46992 -6.10654 -5.90097 
3290 2 5.0368 -7.14612 -5.02056 
13 1 5.91051 -6.8084 -5.80357 
1985 1 6.09784 -6.17554 -5.18607 
3487 2 -7.12317 -6.27212 -5.18006 
2137 1 -6.45416 -5.29458 -5.97369 
683 1 -6.41115 -4.90637 -5.13552 
316 1 -6.22195 -5.64107 -4.84006 
3416 2 -5.21404 -5.33042 -5.76715 
3325 2 -5.5313 -4.61683 -5.77475 
2323 1 -5.41254 -5.49025 -4.68921 
2702 1 -4.24648 -4.66764 -5.80536 
2516 1 -4.7456 -4.74676 -4.90012 
959 1 -4.32616 -5.4804 -5.10747 
833 1 -3.7899 -5.83163 -5.61238 
228 1 -3.62412 -4.95687 -5.29683 
1308 1 -2.00499 -5.47096 -5.87169 
2549 1 -2.91568 -6.0894 -5.37091 
2262 1 -2.78225 -5.21409 -5.17371 
3322 2 -1.4868 -5.62241 -4.83132 
897 1 -1.51925 -4.72317 -6.05093 
3480 2 -1.67239 -4.82855 -4.75561 
245 1 -0.23175 -5.70757 -5.35986 
786 1 -0.661678 -4.94471 -5.52523 
1050 1 -0.32676 -4.96899 -4.59888 
774 1 1.8809 -5.37255 -5.74593 
2826 2 1.03917 -5.74768 -5.56194 
3068 2 0.644664 -5.07645 -5.3223 
2623 1 1.73942 -5.8218 -4.83064 
1575 1 2.84682 -5.25559 -4.94927 
984 1 2.08375 -4.93482 -4.89881 
1896 1 3.60555 -5.38519 -4.69193 
1211 1 4.07875 -5.03966 -5.59872 
451 1 5.98707 -5.32355 -5.09608 
3340 2 4.82476 -5.46582 -4.78969 
1994 1 5.30004 -4.71154 -5.75127 
2670 1 5.817 -4.51016 -5.01342 
2828 2 6.94784 -5.55833 -5.38116 
2721 1 -6.69351 -4.14524 -5.70217 
92 1 -6.84317 -3.11655 -5.12871 
2912 2 -5.5225 -3.97186 -5.34618 
1182 1 -4.64323 -3.33166 -4.74661 
88 1 -4.20502 -4.04542 -5.03206 
1140 1 -4.45247 -3.84599 -5.86797 
842 1 -2.38487 -4.38965 -5.5353 
520 1 -2.29479 -3.53594 -5.52127 
913 1 -3.14848 -4.19029 -5.04025 
523 1 -2.99578 -3.49604 -4.57611 
607 1 -0.534562 -3.36095 -4.86968 
2052 1 -0.679019 -4.17341 -5.22698 
922 1 -1.40947 -4.00184 -5.77974 
541 1 -0.269228 -3.5112 -5.79321 
2768 2 0.519517 -4.23779 -5.26838 
3227 2 0.600164 -3.4444 -5.05921 
840 1 1.46489 -4.43908 -5.7537 
400 1 1.5049 -3.58409 -5.42168 
692 1 1.54646 -4.30107 -4.88402 
1415 1 3.01534 -4.69792 -4.46079 
3249 2 2.66398 -3.98833 -5.65419 
3014 2 2.56544 -3.25433 -5.67525 
1160 1 3.94376 -3.59974 -5.4557 
2145 1 3.65853 -4.36237 -5.11557 
850 1 3.27673 -3.60604 -4.819 
1364 1 4.61097 -4.23619 -5.58063 
2306 1 5.99481 -3.57872 -5.86054 
499 1 5.40199 -3.82264 -5.32061 
3010 2 6.88889 -4.72828 -5.14472 
3080 2 6.80956 -4.01764 -5.0619 
148 1 -7.0771 -1.72406 -5.43356 
1444 1 -7.05608 -2.20324 -4.67351 
2890 2 -5.90646 -2.56095 -5.33115 
2737 2 -5.56913 -3.26699 -5.56069 
1445 1 -4.51541 -3.10587 -5.93011 
2661 1 -4.50987 -2.62269 -5.19477 
1087 1 -3.78592 -3.29647 -5.00838 
484 1 -2.96113 -2.61649 -4.85505 
1112 1 -2.37226 -2.74807 -5.59991 
2511 1 -0.951763 -2.51055 -4.8348 
2631 1 -1.27765 -3.02228 -5.40779 
460 1 -0.564414 -2.0369 -5.49621 
3430 2 0.366556 -2.7056 -4.87937 
2411 1 1.38613 -2.64769 -5.8061 
656 1 1.44601 -2.3796 -4.84952 
2830 2 2.43986 -2.48385 -5.37434 
873 1 3.24195 -1.93683 -4.56187 
1527 1 3.51874 -2.89355 -5.72862 
1945 1 3.38133 -2.68649 -4.77778 
1841 1 4.65985 -3.22843 -5.15091 
1911 1 3.49303 -2.04376 -5.48722 
296 1 4.22061 -2.57906 -5.06943 
2072 1 4.96564 -2.3486 -4.80147 
2101 1 5.63234 -2.73327 -5.22662 
2126 1 6.85486 -3.19306 -6.04649 
2021 1 6.70825 -2.2799 -5.5904 
3173 2 6.61009 -3.34734 -4.78531 
2993 2 -6.0899 -1.05772 -4.87546 
2974 2 -6.02785 -1.85492 -5.03295 
1224 1 -5.9868 -0.839541 -5.94276 
1369 1 -6.98735 -0.982026 -5.88281 
477 1 -5.18147 -1.19657 -5.40969 
1151 1 -4.95502 -1.95174 -5.40099 
2480 1 -4.98296 -0.920816 -4.6295 
3543 2 -3.78924 -1.71598 -5.79037 
3256 2 -3.94212 -0.886004 -5.41819 
2699 1 -2.58294 -1.67477 -5.28725 
2465 1 -1.96009 -1.14769 -5.02244 
1635 1 -2.78806 -0.662223 -4.99806 
2302 1 -3.15722 -1.73994 -4.79323 
1064 1 -1.72651 -2.03789 -5.26724 
2139 1 -0.986167 -1.27383 -5.03494 
3354 2 0.201627 -1.94695 -4.55209 
1562 1 0.301962 -1.34212 -5.67227 
2673 1 1.11404 -1.76145 -5.55013 
75 1 0.839073 -0.923984 -5.14887 
167 1 1.32271 -1.52313 -4.48292 
1876 1 3.10066 -1.09595 -5.52627 
3356 2 2.31678 -1.74361 -5.33242 
3557 2 2.01744 -0.995186 -5.28164 
2645 1 3.61858 -1.26903 -4.96906 
2995 2 4.43358 -1.16906 -5.88543 
1275 1 4.35154 -1.75797 -4.85574 
2972 2 4.65896 -1.93547 -6.0827 
130 1 5.29474 -1.56142 -5.19258 
2231 1 6.21717 -0.479146 -5.12689 
1672 1 6.61165 -1.22314 -5.37739 
304 1 5.98924 -1.65112 -5.6328 
561 1 -5.97878 0.14982 -5.74812 
1472 1 -7.13822 0.459471 -5.04609 
3267 2 -6.19402 -0.230076 -4.67896 
1353 1 -5.09912 0.576067 -5.70228 
1953 1 -5.34166 -0.128828 -5.35648 
3144 2 -3.9864 -0.212631 -5.20161 
2861 2 -4.05051 0.514579 -5.28369 
1772 1 -3.01629 -0.142687 -5.7553 
174 1 -2.15599 -0.185972 -4.89247 
2939 2 -2.02252 0.277285 -5.97054 
2108 1 -3.02256 0.447858 -5.20454 
603 1 -1.23872 -0.330842 -5.00422 
2589 1 -0.817177 0.0304667 -6.05376 
295 1 -0.0303211 -0.434339 -5.51046 
2080 1 1.29721 -0.137389 -6.06397 
3449 2 1.95175 -0.255005 -5.03401 
3383 2 2.06769 0.443505 -4.82265 
1763 1 0.626342 -0.0485868 -5.58107 
2730 1 2.89365 0.156599 -5.69057 
2150 1 3.21269 0.614375 -4.89037 
40 1 3.14876 -0.336741 -4.93728 
3317 2 4.19692 -0.415794 -5.56694 
2848 2 4.16543 0.514209 -5.42917 
1362 1 5.57706 -0.718848 -5.70836 
504 1 5.19043 0.159442 -5.7902 
1340 1 5.71284 0.281159 -5.10636 
665 1 5.02593 -0.186509 -4.8958 
2311 1 7.10727 -0.47667 -5.18026 
1548 1 6.53036 0.304814 -4.78491 
668 1 7.12077 1.46321 -5.27626 
50 1 -6.83673 0.811378 -5.73884 
1607 1 -6.45925 1.69788 -5.36594 
305 1 -5.90338 0.923033 -5.56849 
1288 1 -4.99659 1.51935 -5.69193 
443 1 -5.63608 1.43735 -4.69384 
1725 1 -5.13598 0.715081 -4.68996 
3062 2 -4.36057 1.25873 -4.99818 
2241 1 -3.18285 1.3324 -5.40379 
330 1 -2.58539 0.397068 -4.5659 
2846 2 -1.97657 0.83984 -5.49461 
28 1 -3.1402 1.93122 -4.71484 
286 1 -2.53425 1.28155 -4.6082 
994 1 -0.830207 1.27438 -5.58532 
1517 1 -1.24054 1.56372 -4.85704 
2647 1 -1.04777 0.44812 -5.16091 
14 1 -0.0219013 1.45193 -5.33655 
84 1 0.804878 0.799302 -4.76659 
324 1 0.0819764 0.508328 -5.38249 
497 1 1.01255 1.68847 -5.49942 
904 1 1.20764 0.743057 -5.54725 
371 1 2.15775 1.77422 -5.76778 
3443 2 1.96318 1.26881 -4.71481 
805 1 2.9944 1.12296 -5.97104 
1368 1 3.01266 1.46039 -5.14027 
3364 2 4.15816 1.38295 -5.25792 
2074 1 5.70119 1.27215 -4.91234 
1574 1 5.15336 2.00157 -5.31426 
2087 1 5.17934 1.0758 -5.66269 
3060 2 6.24763 1.32425 -5.89614 
556 1 6.66903 1.2308 -4.56358 
2576 1 -6.08374 3.64358 -4.53226 
723 1 -7.12489 2.45143 -5.92244 
83 1 -6.55202 2.57682 -5.14062 
1336 1 -4.90882 2.76713 -5.84845 
2396 1 -5.47841 2.26703 -5.45766 
1691 1 -4.28471 3.46245 -5.7232 
433 1 -3.4818 2.19269 -5.62957 
2845 2 -4.18689 1.97656 -4.86102 
2077 1 -3.43311 2.98251 -5.87765 
3456 2 -4.68876 2.57773 -4.79624 
3117 2 -2.14183 1.67831 -5.48397 
803 1 -3.24555 2.7244 -4.71417 
2945 2 -2.25299 2.43627 -5.44605 
1057 1 -0.612527 2.27202 -5.06111 
1053 1 -0.934813 3.14371 -5.23268 
1993 1 0.219257 2.65023 -4.78324 
1924 1 0.860401 2.63054 -5.33248 
1848 1 1.57258 2.49171 -5.76645 
441 1 2.71563 2.43693 -5.04265 
1056 1 2.35967 2.92315 -5.70355 
2542 1 2.77322 3.54905 -6.01191 
2592 1 2.37443 3.43095 -5.00236 
3388 2 4.09429 2.12925 -5.09569 
3433 2 3.81376 2.80899 -5.20522 
2276 1 6.15073 2.02348 -4.45337 
23 1 4.92296 2.99915 -5.21771 
2147 1 5.16711 2.29999 -4.54079 
3414 2 6.18751 2.24458 -5.80803 
1207 1 6.91952 2.26848 -5.05137 
3298 2 5.95517 3.11562 -5.56224 
1282 1 6.79435 3.06007 -4.88849 
1238 1 -6.93724 3.34741 -5.32963 
2297 1 -6.70326 4.12435 -4.99411 
1910 1 -5.91999 3.18966 -5.3008 
59 1 -5.15495 3.80212 -5.68298 
131 1 -5.80704 4.21643 -5.24771 
2885 2 -4.85258 3.44929 -4.59917 
912 1 -3.89538 4.12545 -5.28819 
1991 1 -3.70537 3.31284 -5.04589 
2977 2 -2.29112 3.16577 -5.28055 
2865 2 -2.67378 3.91762 -5.13077 
177 1 -1.43288 4.32437 -4.65375 
46 1 -0.639126 3.54078 -4.61122 
175 1 -1.4178 3.9247 -5.37822 
2813 2 -0.146993 3.33673 -6.06255 
3378 2 -0.397952 4.19224 -5.69218 
1687 1 0.117862 3.54218 -4.60479 
2669 1 0.349076 4.39363 -4.83109 
1639 1 0.541592 4.57248 -5.95675 
1249 1 0.773918 3.61636 -5.46362 
301 1 1.57831 3.47516 -5.35186 
1521 1 1.24007 4.23132 -5.15139 
899 1 2.25446 4.14875 -5.46798 
2711 1 4.06262 3.30913 -6.16528 
2814 2 3.42348 4.24644 -4.80874 
2894 2 3.41124 3.50002 -5.16897 
709 1 4.61576 3.8822 -5.28534 
2927 2 5.538 4.4377 -5.34561 
2917 2 5.77545 3.81498 -5.67973 
2092 1 4.60524 4.28502 -4.593 
925 1 5.11884 3.51086 -4.49727 
1092 1 6.86348 4.14598 -5.14947 
2414 1 -7.034 4.95859 -4.86952 
2715 1 -5.98693 5.33698 -5.08211 
2317 1 -6.49651 5.71705 -4.58854 
2473 1 -5.164 5.06449 -5.36361 
2342 1 -3.92823 5.37857 -5.40127 
1229 1 -4.52059 4.47777 -5.46921 
1721 1 -3.97083 4.8125 -4.84749 
2688 1 -4.07713 5.73797 -4.56912 
3458 2 -2.81823 4.73743 -5.00309 
2988 2 -2.92642 5.63385 -4.89803 
2401 1 -1.70669 5.04234 -5.2822 
345 1 -2.0396 5.90931 -4.98272 
3207 2 -0.806878 5.71405 -5.34596 
3392 2 -0.536461 5.01346 -5.5472 
1767 1 0.400879 5.45495 -5.65842 
1269 1 0.0233865 5.31542 -4.59781 
2429 1 1.05396 5.06456 -5.11826 
15 1 2.33105 5.05685 -5.29277 
2564 1 1.0453 6.02192 -4.92324 
1878 1 2.93454 4.75378 -5.79155 
2762 2 3.30628 5.14726 -4.69902 
1130 1 2.7053 5.73159 -5.93758 
16 1 4.45249 4.76118 -5.52676 
696 1 3.63421 5.30313 -5.59829 
459 1 4.49635 5.15948 -4.6742 
1882 1 4.11212 6.02397 -5.25748 
3257 2 5.64383 5.12625 -5.49376 
2971 2 5.41942 5.77526 -5.09341 
806 1 6.6667 5.28656 -5.3095 
1331 1 6.23106 4.71386 -4.64035 
3147 2 -6.89979 5.87525 -5.83358 
3330 2 -7.14664 6.6122 -5.79521 
1184 1 -6.40025 6.47839 -4.70992 
29 1 -6.11506 7.15178 -5.03476 
587 1 -5.54919 6.20991 -5.33044 
297 1 -4.71296 5.81143 -5.20966 
2321 1 -5.26889 7.09776 -5.14862 
1346 1 -3.83174 6.3172 -5.58131 
2033 1 -4.51233 6.41606 -4.80873 
2603 1 -2.68459 6.50494 -5.82982 
1370 1 -1.9269 5.87343 -5.88199 
2635 1 -1.87665 6.76959 -4.93401 
3018 2 -0.930783 6.43799 -5.38466 
1356 1 0.330677 6.19252 -5.75382 
1799 1 0.18468 7.01316 -5.43794 
1107 1 0.166172 6.16835 -4.73042 
1289 1 1.28075 6.8688 -4.70764 
427 1 2.00039 6.90357 -5.17634 
1837 1 2.65295 6.78245 -5.66766 
2096 1 2.20235 6.12068 -5.23095 
2048 1 3.33937 6.25207 -5.60194 
248 1 3.68319 7.05671 -5.29649 
798 1 4.28325 6.70634 -5.75726 
2483 1 4.02061 6.71229 -4.52991 
2926 2 5.1284 6.52391 -4.90997 
1667 1 6.37254 6.26569 -5.28783 
440 1 6.22419 7.11172 -5.1885 
1939 1 6.92221 5.70998 -4.65164 
2533 1 -6.56249 -6.82309 -4.46768 
2571 1 -6.8344 -6.75872 -3.57732 
1664 1 -6.86821 -6.09423 -4.11141 
3375 2 -5.67847 -6.42015 -3.8691 
595 1 -4.60999 -6.06433 -4.23016 
3413 2 -3.4377 -6.38241 -4.41756 
2146 1 -4.36749 -6.4343 -3.51141 
202 1 -3.89303 -7.02229 -3.49035 
2102 1 -3.91963 -5.72154 -3.2651 
2439 1 -2.31727 -6.31568 -4.63816 
1406 1 -2.31391 -5.91179 -3.66757 
1665 1 -2.10728 -7.07552 -4.37834 
2726 1 -2.5967 -6.79991 -3.80245 
1144 1 -1.52764 -6.41312 -3.91228 
1089 1 -0.5606 -6.65979 -4.02489 
3056 2 0.511325 -6.68124 -3.46123 
1538 1 0.925624 -6.08292 -4.47521 
2105 1 1.5006 -6.12739 -3.88165 
2525 1 1.82583 -6.51771 -3.11384 
2918 2 2.57721 -6.13552 -4.03568 
3303 2 2.67351 -6.93124 -4.29864 
189 1 3.9425 -6.78603 -4.70012 
112 1 3.39233 -6.62243 -3.28526 
1000 1 4.38721 -6.46884 -3.83726 
72 1 5.20188 -6.72098 -3.56972 
2659 1 5.90281 -6.29674 -4.30005 
1013 1 6.74324 -6.87059 -4.56092 
1863 1 5.8523 7.18433 -4.22042 
2388 1 -6.83558 -5.13221 -4.46409 
3286 2 -6.00311 -5.0495 -3.58551 
844 1 -7.16381 -4.93338 -3.48851 
642 1 -4.67812 -5.09821 -3.94643 
2896 2 -5.82423 -5.75292 -3.56064 
1542 1 -5.62668 -4.74482 -4.47905 
808 1 -4.81175 -5.10125 -3.21113 
3562 2 -3.64391 -5.63917 -4.18841 
3536 2 -3.62829 -4.93342 -4.20061 
2176 1 -2.07292 -4.7025 -3.66018 
2038 1 -2.66667 -5.41743 -4.29726 
666 1 -2.83312 -5.19238 -3.34939 
1127 1 -1.61572 -5.38871 -3.6443 
1931 1 -0.833647 -4.91069 -4.00275 
1585 1 -0.498894 -5.81704 -3.83108 
1028 1 0.482465 -5.4353 -4.24016 
3236 2 0.482831 -5.84576 -3.2511 
1611 1 1.24244 -5.03007 -4.45591 
247 1 1.39349 -5.33606 -3.61852 
3379 2 2.4433 -5.42418 -3.80206 
3230 2 2.24999 -4.67946 -3.70236 
2469 1 3.72364 -5.99526 -3.95548 
834 1 3.65723 -5.18946 -3.82577 
1741 1 4.45247 -5.3756 -3.52822 
997 1 5.86175 -5.18175 -4.29395 
1256 1 5.29508 -5.57353 -3.7436 
2507 1 6.76534 -5.4841 -4.2627 
1354 1 -7.12024 -4.28946 -4.18612 
1251 1 -6.46744 -3.95233 -4.69754 
3100 2 -6.02152 -4.24228 -3.46403 
3051 2 -6.26038 -3.56 -3.2072 
1361 1 -5.07725 -3.89435 -4.24075 
56 1 -5.54735 -3.2635 -4.16932 
550 1 -4.94721 -4.20394 -3.54142 
3376 2 -3.79952 -4.27328 -3.82571 
3083 2 -3.89438 -3.49602 -3.80399 
977 1 -2.66512 -4.56639 -4.45552 
2044 1 -2.52299 -3.93717 -3.97549 
1299 1 -1.92124 -3.78998 -3.3811 
3285 2 -1.62158 -4.05753 -4.80252 
3198 2 -1.77683 -3.3471 -4.48792 
1846 1 -1.01858 -4.2184 -3.60025 
358 1 -0.682314 -3.68003 -3.93524 
2058 1 -0.286444 -4.18724 -4.52376 
1195 1 0.177885 -3.78353 -3.94949 
1491 1 0.403123 -4.7096 -4.03822 
2540 1 1.08741 -4.10297 -4.18503 
3320 2 1.88411 -3.19051 -3.41569 
3015 2 2.17844 -3.91119 -3.52956 
2558 1 2.32193 -3.97251 -4.62625 
2857 2 4.31208 -4.03477 -4.34642 
27 1 3.3054 -4.25667 -3.89876 
3244 2 4.67775 -4.71048 -4.61904 
1595 1 5.59236 -3.87433 -4.4491 
1428 1 5.39111 -4.51938 -3.84511 
168 1 6.06935 -3.59633 -3.7555 
31 1 5.1639 -3.51775 -3.44694 
2521 1 6.34873 -4.47055 -4.03267 
1851 1 6.80405 -3.76862 -3.73082 
1294 1 -6.98841 -3.08372 -3.9583 
2612 1 -6.2861 -2.99244 -4.44281 
2351 1 -6.54475 -2.06837 -4.00804 
2375 1 -5.75981 -2.32414 -4.03696 
318 1 -5.16419 -2.56596 -4.59243 
1392 1 -5.11993 -3.24435 -3.35029 
965 1 -3.85503 -2.26576 -4.6394 
3229 2 -4.44855 -2.65033 -3.88237 
3447 2 -4.29678 -1.8931 -3.52498 
1285 1 -3.17753 -2.76122 -4.00238 
2766 2 -2.12491 -1.93136 -4.19771 
1380 1 -2.44004 -3.00006 -3.30433 
2916 2 -1.98745 -2.63559 -4.19694 
1266 1 -1.02738 -2.32266 -3.61148 
2639 1 -1.12941 -3.34151 -3.33939 
527 1 -0.626841 -2.87996 -4.08078 
2400 1 -0.103235 -2.24427 -3.64565 
2263 1 0.349342 -2.96367 -3.58227 
749 1 0.965759 -3.21382 -4.01385 
1239 1 1.21882 -2.38386 -3.98149 
1215 1 1.83288 -3.16531 -4.68119 
1830 1 2.62197 -2.57373 -4.39017 
1653 1 2.95176 -3.27987 -4.11608 
1759 1 2.92684 -2.27972 -3.65175 
3353 2 4.16235 -3.26051 -4.00178 
3134 2 4.06889 -2.52745 -3.85215 
2211 1 5.84652 -2.89368 -3.58923 
2646 1 4.78468 -2.56494 -2.9593 
960 1 5.1708 -2.00391 -4.09436 
85 1 5.37133 -3.0262 -4.39996 
2858 2 6.3672 -2.5788 -4.49336 
721 1 5.4404 -2.21646 -3.31415 
2132 1 6.86964 -2.36676 -3.56174 
2657 1 6.68348 -3.11166 -3.11736 
1326 1 -7.14832 -1.20281 -4.52418 
1568 1 -6.45739 -1.17486 -3.75039 
1316 1 -5.6513 -1.34352 -3.37249 
2436 1 -5.31557 -1.42205 -4.06559 
2605 1 -4.64782 -1.6662 -4.66584 
159 1 -3.56237 -1.15038 -4.23483 
1790 1 -3.24002 -1.9345 -3.83939 
2748 2 -2.4328 -1.3565 -3.8954 
667 1 -1.31533 -0.783606 -4.19498 
858 1 -0.848099 -1.83845 -4.33886 
3585 2 -0.00588908 -1.1234 -4.41351 
1065 1 -0.425197 -1.39639 -3.32736 
393 1 0.426616 -1.05287 -3.31208 
1055 1 0.768758 -1.71681 -3.66471 
2020 1 1.17111 -0.779657 -3.82378 
876 1 1.97332 -0.730562 -3.98643 
1085 1 2.02169 -2.04688 -4.15762 
1300 1 2.47169 -1.36425 -4.1544 
2407 1 3.0705 -0.915058 -4.37747 
609 1 2.83845 -1.28826 -3.41318 
76 1 3.95539 -0.356882 -4.51632 
2914 2 3.92677 -1.72272 -3.69651 
3483 2 3.73994 -0.842782 -3.54895 
734 1 4.89936 -1.03733 -3.91864 
410 1 4.65829 -0.986726 -4.65635 
1791 1 6.91858 -1.43122 -3.70047 
3116 2 6.17841 -1.75055 -4.53063 
2856 2 5.83339 -0.918847 -4.39165 
1560 1 -6.68979 -0.35577 -3.71182 
2028 1 -6.14071 0.310151 -3.34206 
3186 2 -6.329 0.542173 -4.41501 
697 1 -5.40116 -0.403219 -4.00563 
2363 1 -4.78845 -0.0146582 -4.42959 
2054 1 -5.49009 0.696348 -3.83869 
1787 1 -4.27163 -0.683081 -4.16849 
1671 1 -3.69088 0.362647 -3.8848 
1809 1 -3.66082 -0.516235 -3.52169 
1623 1 -3.3409 -0.280974 -4.3796 
2789 2 -2.32162 -0.548401 -3.78512 
3490 2 -2.5338 0.131472 -3.54767 
605 1 -1.40783 0.0687873 -3.92347 
1441 1 -0.5838 -0.540914 -3.27398 
1777 1 -1.63514 0.537109 -4.50518 
2228 1 -1.36494 0.930211 -3.52799 
3500 2 -0.159967 -0.339628 -4.23755 
3555 2 -0.347421 0.44673 -4.35269 
1432 1 0.211058 -0.171777 -3.20615 
892 1 0.926211 -0.110869 -4.47252 
414 1 1.66724 0.0741604 -3.80262 
1375 1 0.667602 0.33157 -3.78653 
2460 1 2.5556 -0.380004 -3.24088 
2084 1 2.71194 -0.0988476 -4.1631 
2135 1 3.76272 0.474064 -4.34334 
1325 1 4.73995 0.573894 -3.76111 
388 1 4.54151 -0.120867 -4.0481 
2201 1 4.9399 -0.355067 -3.07646 
82 1 4.96088 0.622347 -4.68523 
802 1 7.06626 -0.340987 -4.29044 
2902 2 5.95488 -0.322064 -3.8639 
2642 1 6.98561 0.483895 -4.00066 
49 1 -6.96365 0.733435 -3.22615 
3263 2 -6.62038 1.30706 -4.27138 
3260 2 -6.68295 2.1188 -4.14038 
2448 1 -4.49806 1.00583 -3.83386 
1169 1 -5.24157 1.72071 -4.01801 
731 1 -4.49814 1.79025 -3.65534 
1853 1 -5.73023 1.62917 -3.38217 
2508 1 -3.65068 1.54875 -3.95143 
594 1 -3.36659 1.00532 -4.54067 
521 1 -3.86573 0.727182 -3.31554 
3588 2 -2.62907 0.9037 -3.39965 
3120 2 -2.84114 1.61136 -3.30542 
883 1 -1.72406 1.28368 -4.21641 
2713 1 0.606259 1.68345 -4.65149 
2950 2 -0.348801 1.27564 -4.2429 
2186 1 0.203072 0.911814 -3.21047 
2650 1 1.81636 0.929996 -3.72191 
1706 1 1.01004 1.21214 -3.94848 
2575 1 2.89907 0.767938 -4.06363 
1788 1 3.28373 1.58273 -4.36445 
727 1 2.58654 1.68818 -4.00665 
377 1 4.1033 1.13664 -4.11502 
710 1 4.39721 2.00518 -3.90086 
3394 2 3.49286 0.937052 -3.28384 
2819 2 5.90403 0.524591 -3.93286 
3209 2 5.68885 1.30489 -3.70426 
2380 1 4.83794 1.5127 -4.41315 
1927 1 6.77216 1.4493 -3.75293 
3033 2 -6.91636 2.9017 -3.88751 
1060 1 -5.82334 2.55673 -4.46186 
554 1 -5.57033 2.36282 -3.64099 
2641 1 -5.64046 3.11816 -3.75669 
2551 1 -4.74534 2.79708 -3.60158 
2395 1 -3.74136 2.37712 -3.873 
2490 1 -2.36495 2.10481 -4.24962 
291 1 -2.79631 2.93582 -4.02075 
1198 1 -2.04573 3.57217 -3.18758 
823 1 -1.39422 2.58474 -4.55562 
1367 1 -1.87598 2.80793 -3.55224 
2860 2 -0.759029 2.94953 -3.6759 
772 1 0.68648 2.36231 -3.94716 
3196 2 -0.587614 2.19302 -3.88372 
3241 2 1.70486 2.03118 -4.65639 
3063 2 1.57476 2.94361 -4.41939 
2313 1 1.39227 1.77952 -3.52866 
1466 1 2.59271 2.71941 -4.20384 
2325 1 2.21673 2.3522 -3.59627 
1524 1 3.53307 2.35996 -4.09897 
614 1 4.51135 2.90532 -4.18635 
194 1 5.80416 3.03419 -4.49722 