ITEM: TIMESTEP
20500
ITEM: NUMBER OF ATOMS
3594
ITEM: BOX BOUNDS pp pp pp
-7.2106044901797439e+00 7.2106044901797439e+00
-7.2106044901797439e+00 7.2106044901797439e+00
-7.2106044901797439e+00 7.2106044901797439e+00
ITEM: ATOMS id type x y z 
2045 1 -6.0401 -7.01449 -5.68476 
355 1 -6.78524 -6.04915 -6.35929 
1437 1 -5.49744 -6.30093 7.09144 
601 1 -4.82446 -6.96224 -7.0614 
2191 1 -6.06076 -6.71665 -6.50289 
3520 2 -5.3124 -6.27847 -5.9136 
2727 1 -3.95028 -6.41384 -6.33736 
2944 2 -2.87602 -6.77338 -6.75123 
3574 2 -2.92912 -5.97606 -6.53697 
448 1 -2.01082 -6.97297 -5.79949 
1643 1 -0.787511 -6.70594 -6.22399 
1582 1 -1.59977 -6.76328 -6.45465 
527 1 -0.126629 -6.33277 -5.90992 
798 1 -0.235784 7.04151 -6.26142 
2322 1 0.329762 -6.7946 -6.72955 
1133 1 0.191826 -5.79613 -6.55475 
2415 1 1.2805 -6.75865 -6.90428 
1634 1 1.0236 -5.67637 -6.78504 
2368 1 1.76915 -6.04213 -6.64197 
1175 1 1.94048 -6.05272 -5.86037 
1538 1 2.51801 -6.54266 -7.15905 
3442 2 3.3533 -6.63409 -6.49467 
1234 1 4.3398 7.19772 -7.05125 
2957 2 3.02176 -6.14949 -6.01741 
2150 1 4.40437 -6.40206 -6.27755 
3208 2 5.50556 -6.48604 -6.94652 
2787 2 5.74188 7.1925 7.16915 
628 1 4.91821 -7.08838 -6.30651 
317 1 6.77376 -6.35473 -6.52237 
2521 1 -6.78755 -6.92463 -6.64317 
318 1 -6.34897 -5.04537 -6.26998 
639 1 -7.17788 -5.18706 -6.08497 
1263 1 -5.97963 -5.77111 -6.73513 
2122 1 -4.74773 -4.56476 -6.5263 
1406 1 -5.03919 -5.42053 -6.82176 
1280 1 -4.5284 -6.14678 -6.99558 
2706 1 -3.93343 -4.85004 -7.12475 
2981 2 -3.17134 -5.22321 -6.40737 
484 1 -1.77862 -5.04902 -6.47536 
3484 2 -0.79692 -5.02109 -7.01128 
2238 1 -1.10603 -5.78069 -6.13248 
821 1 -1.82665 -5.23887 6.72154 
2426 1 -1.86757 -6.01861 -6.72733 
579 1 0.208555 -4.98452 -6.70997 
774 1 0.338635 -5.55204 6.96703 
1088 1 0.983794 -4.74787 -6.47293 
2623 1 2.4626 -5.66935 -6.97824 
2933 2 2.94885 -5.38224 -5.95035 
2379 1 2.05686 -4.89849 -6.81361 
1976 1 3.44967 -4.60305 -6.84384 
645 1 4.1044 -6.36681 -7.16367 
2407 1 3.93476 -4.18936 -6.21478 
388 1 4.11458 -5.45799 -6.36604 
2812 2 5.22246 -5.7505 -6.73133 
3212 2 5.12146 -4.93474 -6.40758 
1362 1 5.31337 -5.17366 6.66883 
304 1 6.13989 -5.44377 7.09979 
1373 1 6.01864 -6.16152 -6.00086 
2656 1 6.47784 -5.5827 -6.54769 
3029 2 7.1301 -3.75641 -6.90512 
3495 2 -7.05388 -4.48958 -7.17611 
1918 1 -5.99803 -4.29986 6.98843 
1078 1 -5.74552 -3.70161 -6.51456 
1184 1 -5.68631 -4.67888 -6.66802 
923 1 -5.50025 -2.73192 -6.3348 
3041 2 -3.55773 -4.01715 -6.12596 
977 1 -4.3834 -4.57876 -5.68911 
2699 1 -4.1476 -3.80454 -6.92333 
3061 2 -3.01808 -4.64504 -5.9907 
37 1 -2.04838 -4.25552 7.05803 
128 1 -2.08683 -4.26052 -6.40406 
667 1 -3.30107 -3.10473 -6.88218 
2808 2 -0.954913 -4.23066 -6.94878 
3332 2 -1.22205 -3.51782 -6.61009 
722 1 0.0278981 -4.0474 -6.23664 
1738 1 -0.0721786 -3.11007 -6.06188 
2589 1 -0.0636239 -3.2183 -6.94504 
842 1 0.652242 -2.9222 -6.29144 
1050 1 0.871913 -3.8498 -6.2158 
1168 1 1.78137 -4.19813 -6.43817 
1734 1 2.67577 -4.25183 -6.73291 
2062 1 3.57129 -3.68975 -6.68956 
985 1 4.17631 -4.05967 7.12321 
1859 1 4.23128 -4.70268 -5.59504 
2617 1 3.87416 -3.47712 -5.54391 
3266 2 5.05061 -4.13364 -6.53237 
2767 2 4.94892 -3.27865 -6.22169 
1325 1 7.10774 -4.12243 -5.79487 
802 1 5.9481 -3.54809 -7.13261 
452 1 6.42376 -4.66179 -6.14927 
670 1 -6.47309 -1.54847 -6.64835 
1392 1 -6.32355 -2.53064 -6.79701 
1784 1 -5.11001 -3.98034 -6.24553 
1445 1 -4.89297 -2.17017 -5.946 
1087 1 -4.78208 -3.15301 -6.3083 
2869 2 -3.48378 -3.14977 -5.92885 
1027 1 -4.7318 -1.50186 -6.39472 
1370 1 -3.26455 -2.18343 -6.94404 
2289 1 -2.28383 -3.44546 -6.09305 
594 1 -2.14157 -2.41089 -7.1037 
2124 1 -2.4074 -3.34107 -6.91675 
3234 2 -1.06084 -2.88185 -6.44173 
1767 1 -0.235821 -2.21283 7.19993 
502 1 0.40352 -2.12137 -5.71436 
2804 2 0.985916 -2.12141 -7.14304 
2599 1 1.70685 -2.4416 -6.18904 
1663 1 1.87521 -3.2803 -6.46864 
1374 1 2.81368 -3.1686 -6.72275 
859 1 3.57543 -2.99442 -6.20233 
1635 1 2.07578 -2.52197 -7.05041 
1834 1 4.16207 -3.29567 -6.97458 
70 1 4.08892 -2.37701 -7.00943 
3550 2 4.65301 -2.53108 -6.03517 
2670 1 5.81246 -2.42161 -6.89529 
2975 2 7.04347 -2.8646 -6.78222 
3126 2 7.11145 -2.08379 -6.61123 
2352 1 6.00682 -2.81959 -6.1836 
3087 2 6.80145 -1.55045 -6.19508 
351 1 -6.7139 -0.815872 -6.37129 
2641 1 -6.68722 -1.98621 -5.62091 
1815 1 -4.8581 -0.646523 -4.80354 
2892 2 -5.3535 -1.77294 -7.11591 
3360 2 -5.48476 -0.858523 -7.01716 
2578 1 -5.04106 -1.10806 -5.56755 
1001 1 -4.43222 -2.53772 -6.69498 
2718 1 -2.73033 -1.8631 -6.43526 
395 1 -3.88728 -1.57487 -6.79494 
1474 1 -2.3485 -0.683078 -6.54757 
1457 1 -2.35781 -1.37383 -6.94153 
3105 2 -1.51075 -2.13801 -6.32622 
3200 2 -1.56645 -1.38968 -6.1311 
2108 1 -0.529117 -1.44412 -6.48509 
3088 2 0.648283 -0.941158 -6.63887 
3151 2 0.725871 -1.67632 -6.58509 
2558 1 1.3484 -1.73664 -5.62634 
1111 1 2.76951 -2.46841 -6.41419 
236 1 1.93346 -1.72252 -6.57626 
1698 1 2.62645 -1.56565 -6.18084 
2477 1 4.12123 -1.05784 -6.59153 
2183 1 4.53692 -0.415839 -6.98129 
2972 2 4.42776 -1.74789 -5.79331 
377 1 5.23419 -1.00149 -6.53801 
1414 1 5.58664 -1.8412 -6.06247 
140 1 5.62447 -0.602727 -5.90259 
2840 2 6.58072 -0.869233 -6.19102 
1841 1 -7.14694 -0.644806 -5.31501 
1331 1 -6.70955 0.234145 -6.69464 
3097 2 -5.5375 -0.129072 -6.79647 
2037 1 -4.84081 -0.380162 -6.12718 
83 1 -4.25832 -0.677748 -6.62978 
174 1 -3.32348 -1.05486 -6.44341 
1745 1 -2.95899 0.500794 -6.39293 
330 1 -2.38924 0.138448 -6.90515 
743 1 -2.90795 -0.352975 -5.95543 
2796 2 -1.58805 -0.61881 -5.84605 
2939 2 -1.7965 0.154066 -5.80438 
1993 1 -1.49296 0.114785 -6.86771 
1265 1 -1.53103 1.0699 -6.84278 
603 1 -0.51281 -0.52315 -6.097 
3311 2 0.517922 -0.140127 -6.4435 
2178 1 1.89973 -1.12738 -6.00524 
84 1 1.57185 -0.10074 -5.93705 
3459 2 2.69232 0.17284 -7.08632 
171 1 2.52543 -0.648379 -6.17066 
2535 1 3.32195 -0.908274 -6.22407 
2276 1 3.71524 -0.226038 -6.66072 
1322 1 4.75555 0.246309 -6.72957 
873 1 5.32062 0.162266 -6.01724 
1911 1 5.63898 -0.0846321 -5.2768 
565 1 5.42574 -0.266329 -6.80577 
2086 1 6.05954 0.106779 7.01623 
2797 2 6.5744 0.00252552 -6.24476 
3135 2 6.38008 0.699082 -6.3601 
571 1 -6.82593 -0.0351182 -5.84265 
3007 2 -5.74334 1.48187 -6.70376 
1455 1 -6.91498 1.0605 -6.94529 
339 1 -6.90434 0.879081 -6.08032 
3127 2 -5.74086 0.665465 -6.76364 
1483 1 -4.66476 1.2378 -6.60256 
2560 1 -4.19081 0.468248 -6.34209 
2180 1 -3.57871 -0.118821 -6.48407 
3148 2 -3.68236 1.62624 -7.107 
1238 1 -3.61114 1.13422 -6.1439 
902 1 -2.37021 0.971172 -6.83837 
1894 1 -2.74675 1.51378 -6.39332 
2329 1 -2.54114 1.34015 6.77024 
28 1 -0.645647 0.316223 -6.04381 
75 1 -0.303512 1.70352 -5.22667 
1353 1 -1.56773 2.00038 -6.65587 
1978 1 -0.971798 1.22935 -5.98192 
731 1 -0.736743 0.575803 -6.94089 
2928 2 0.412352 0.727116 -6.35544 
3078 2 0.101015 1.40637 -6.26201 
1525 1 -0.141603 1.49827 7.00413 
225 1 1.76501 1.06286 -6.44525 
1713 1 2.34764 0.303432 -6.01964 
3393 2 2.62067 0.993642 -7.07127 
3417 2 2.42914 1.75258 -7.07682 
1889 1 3.26587 1.70848 -6.30485 
970 1 3.2071 0.0352224 -5.77618 
1286 1 3.49429 0.871968 -6.06738 
50 1 4.64186 1.19615 -6.37706 
1865 1 4.01154 0.711761 -6.57903 
2380 1 4.06451 1.75477 -6.47192 
1185 1 5.24656 1.07311 -5.85741 
2072 1 5.44682 0.860134 -7.05333 
1515 1 5.31003 1.66436 -6.7124 
3038 2 6.26378 1.37243 -6.15336 
2530 1 6.46667 1.6097 -7.1471 
3140 2 -6.06105 2.20444 -6.5176 
2690 1 -7.16539 2.00643 -6.67974 
1335 1 -4.87209 2.44181 -6.51477 
141 1 -4.56891 2.85585 -5.8105 
3093 2 -3.87463 2.29167 -7.12114 
2783 2 -3.95158 3.1228 -6.86188 
1224 1 -2.68316 3.45598 -6.55128 
989 1 -2.43926 2.10953 -6.9203 
2505 1 -3.23748 3.49868 6.8205 
2508 1 -1.91533 2.8002 -6.44026 
1933 1 -0.804028 1.68975 -6.84513 
2603 1 -0.137674 2.33863 7.16152 
3444 2 0.160457 2.21335 -6.14815 
474 1 0.945463 2.52642 -7.09117 
2813 2 -0.126288 3.04187 -5.99257 
1368 1 1.3718 1.88256 -6.51127 
1932 1 0.996686 2.95524 -6.04868 
1098 1 2.00765 1.64638 -5.91902 
2271 1 1.66376 2.49084 -5.76596 
3478 2 2.16808 2.53694 -6.77311 
3466 2 2.11535 3.30879 -6.60949 
614 1 3.66014 2.31269 -6.91646 
1113 1 3.49797 1.59887 7.17506 
1883 1 4.08854 2.49478 -6.2172 
850 1 4.97152 2.00367 -5.83728 
2327 1 4.98325 2.82055 -5.26884 
865 1 4.87749 2.64589 -6.46623 
2594 1 5.75003 2.48622 -7.02215 
404 1 6.30716 3.52794 -6.78298 
1727 1 6.75204 2.72419 -6.72403 
3465 2 -6.1982 2.98616 -6.27939 
131 1 -6.97181 3.27971 -7.03095 
2736 2 -6.25108 3.85951 -6.16392 
1760 1 7.18274 4.17675 -7.0291 
2681 1 -4.98585 3.72385 7.02654 
789 1 -5.17377 2.6227 7.02553 
1318 1 -5.16009 3.27519 -6.67519 
3408 2 -4.0336 3.81467 -6.72623 
343 1 -3.0317 4.11096 -7.00171 
715 1 -2.06071 4.0669 -6.1463 
803 1 -3.03091 4.4832 -6.25586 
1623 1 -0.951636 2.72319 -6.72616 
2839 2 -2.13259 4.59645 -7.13442 
1198 1 -1.34189 3.70107 -6.50614 
1486 1 -0.224632 3.25215 -7.18482 
2673 1 0.666226 3.44621 -6.94032 
849 1 0.44803 5.40482 -5.77944 
2522 1 0.502776 4.751 -6.39028 
3138 2 1.9451 4.06054 -6.55256 
96 1 3.11129 3.955 -6.67372 
1066 1 3.24661 3.08496 -6.87129 
3223 2 4.18085 3.83842 -6.93094 
3215 2 4.01155 4.64849 -6.96261 
2092 1 4.75396 3.33054 -5.91414 
112 1 5.46409 4.00665 -6.55565 
248 1 6.65321 4.14456 -6.26415 
1584 1 7.04774 3.26498 -6.12731 
16 1 5.88053 4.79585 -6.42025 
1879 1 -5.86493 5.12575 -6.90793 
1413 1 -6.71703 5.26776 -7.1923 
2396 1 -5.44528 5.19808 -6.2124 
3471 2 -4.52901 5.27685 -6.66898 
2268 1 -5.31901 4.20809 -6.66584 
3411 2 -4.2812 4.52967 -6.59108 
964 1 -3.36221 6.10846 -6.48405 
2376 1 -2.73773 5.5755 -5.97801 
1396 1 -3.24692 5.17796 -6.67625 
3454 2 -2.26974 6.17128 -6.95882 
1394 1 -2.51957 6.36937 -5.81 
345 1 -0.921756 5.25683 -7.00496 
1652 1 -1.36103 4.84784 -6.40752 
786 1 -1.60724 5.71048 -6.29805 
1877 1 0.122015 4.12171 -6.95426 
2630 1 0.692121 5.80847 -6.82106 
1308 1 -0.718106 4.30815 -6.74985 
2429 1 0.132428 6.21167 -6.25992 
948 1 -0.20044 5.20579 -6.61993 
2831 2 1.72843 4.79865 -6.46345 
2899 2 1.47962 5.5634 -6.09033 
686 1 2.46887 5.88698 -6.74747 
2492 1 2.72438 5.26434 7.08432 
372 1 2.78597 4.81279 -6.6395 
2790 2 3.87691 5.40914 -6.79399 
1513 1 4.80722 5.21214 -6.0865 
1295 1 4.97802 4.3587 -6.08903 
795 1 5.11198 4.89018 -7.03126 
1247 1 4.09297 4.41842 -5.755 
577 1 6.92584 4.97276 -6.75395 
1530 1 6.28463 6.49106 -6.16456 
244 1 6.54594 5.37794 -6.08286 
2437 1 -6.68129 6.65997 -6.85731 
573 1 -6.53406 5.93734 -6.88635 
558 1 -5.72784 7.06543 -6.87872 
3463 2 -4.55499 6.02244 -6.5646 
3150 2 -4.84773 6.67395 -6.19018 
1697 1 -5.37836 6.56982 6.86647 
1654 1 -3.47167 6.87171 6.96374 
3268 2 -2.51854 6.91519 -6.84959 
1619 1 -3.52607 6.55672 -5.9167 
1333 1 -1.01175 6.93705 -6.60817 
1702 1 -1.19425 6.27982 -7.17129 
1167 1 -1.4974 -7.16252 7.0251 
1709 1 0.479 6.84137 -6.66801 
597 1 -0.686764 6.0175 -6.60815 
215 1 1.20348 6.60423 -7.04795 
2978 2 1.36905 6.4005 -5.95747 
546 1 1.97369 6.39724 -7.06433 
1689 1 2.07548 -7.05391 -6.78722 
1051 1 4.71295 6.5923 -6.96304 
3587 2 3.28761 6.96017 -6.66468 
3569 2 3.58825 6.15307 -6.8334 
805 1 5.011 5.90568 -6.45514 
3539 2 5.74324 6.39061 7.09348 
274 1 5.77309 5.6855 -6.28564 
1954 1 6.89466 7.18143 -6.8614 
1526 1 6.31311 -7.1176 -6.17886 
2051 1 -6.95919 -6.14354 -4.2005 
1246 1 -6.33861 -6.479 -4.77037 
3487 2 6.96104 -6.32583 -5.35015 
1616 1 -6.0246 6.6566 -6.25524 
610 1 -6.59755 -7.15128 -4.43858 
3477 2 -4.9168 -7.0094 -6.13751 
1885 1 -5.46396 -6.98904 -4.90939 
2309 1 -4.6292 -6.6612 -4.87948 
1252 1 -3.87337 7.00374 -6.57399 
1691 1 -4.62921 6.87506 -4.6269 
2459 1 -4.15294 -6.28071 -5.54911 
520 1 -3.44097 -6.8646 -5.73889 
2439 1 -2.58633 -6.33645 -5.46282 
2350 1 -2.49876 -5.57416 -5.12352 
1836 1 -1.97648 -5.99982 -5.85398 
3594 2 -1.18037 -6.772 -5.11318 
3322 2 -1.30824 -5.92254 -5.02191 
2491 1 -0.37103 -5.71395 -5.23665 
1881 1 -0.0539646 -6.55539 -4.84579 
26 1 0.405537 -5.84313 -4.54311 
2826 2 0.996888 -6.55631 -5.74295 
1382 1 2.20332 -6.83596 -5.94772 
3068 2 0.798864 -5.86328 -5.58235 
1967 1 0.792629 -6.62259 -4.6632 
1998 1 2.20858 -6.05966 -4.88949 
224 1 3.18169 7.01061 -5.57892 
2256 1 2.9854 -6.534 -4.97241 
1416 1 3.97027 -6.72242 -5.41082 
3290 2 4.70704 -6.55329 -4.63201 
1724 1 5.62098 -6.98834 -5.77608 
2747 2 -7.10212 -6.99387 -5.52927 
2462 1 6.1543 -6.95216 -4.84684 
1320 1 5.86451 -6.39676 -5.24602 
1718 1 -6.32388 -6.15455 -5.62459 
3325 2 -5.41856 -4.91134 -5.49092 
3416 2 -5.26683 -5.52495 -5.76113 
2318 1 -5.48859 -6.04649 -4.85055 
1361 1 -4.19746 -5.31885 -6.49484 
1733 1 -4.44394 -5.62117 -4.902 
2248 1 -3.99163 -5.36656 -5.67267 
2453 1 -3.40245 -5.94565 -5.40045 
909 1 -2.08042 -5.13652 -5.74491 
1210 1 -0.4581 -5.39067 -6.07905 
2543 1 -1.18135 -4.66122 -5.79394 
3480 2 -1.44233 -5.0856 -4.80789 
1945 1 -0.365865 -4.74774 -5.58395 
245 1 1.70447 -5.15917 -6.07824 
1905 1 1.39634 -3.60886 -5.6468 
2768 2 0.704721 -5.12213 -5.45822 
1425 1 1.3404 -5.79104 -4.72962 
2113 1 1.9664 -5.34095 -5.30759 
393 1 1.70853 -4.46022 -5.59839 
1215 1 3.99412 -5.84907 -5.60202 
1695 1 3.57107 -5.0925 -4.82545 
847 1 2.64978 -5.25359 -4.82675 
281 1 4.98284 -6.27479 -5.66164 
589 1 4.76669 -5.39145 -5.61077 
2825 2 4.60452 -5.64396 -4.53403 
144 1 5.63947 -5.61846 -4.96002 
2828 2 6.90304 -5.54078 -5.18339 
3010 2 6.85705 -4.83106 -4.87586 
1282 1 -6.99817 -3.38363 -5.92967 
472 1 -6.45698 -4.14634 -6.26464 
1551 1 -6.50024 -5.18223 -5.31974 
587 1 -6.72501 -4.20667 -5.19511 
2912 2 -5.65948 -4.2343 -5.30231 
2737 2 -5.67651 -3.36988 -5.29587 
1609 1 -4.68832 -3.87889 -4.67228 
1864 1 -3.86007 -4.4859 -5.08183 
1790 1 -3.11312 -4.01393 -4.74725 
1671 1 -4.62397 -3.41805 -5.59229 
1465 1 -3.32311 -5.18523 -5.08325 
1979 1 -2.4291 -4.49936 -5.23348 
1953 1 -2.68366 -3.53633 -5.24089 
250 1 -0.697487 -3.80248 -5.67184 
1722 1 -1.72015 -3.90421 -5.53907 
2139 1 -1.69481 -2.86564 -5.31163 
3285 2 -1.68484 -4.33685 -4.42396 
15 1 -0.633693 -3.93238 -4.75756 
1028 1 -0.785199 -3.10531 -4.40031 
3227 2 0.656294 -4.4499 -5.25148 
3430 2 0.538741 -3.66372 -4.98488 
40 1 1.73069 -3.74212 -4.78009 
247 1 2.0886 -4.51903 -4.70986 
3014 2 2.87041 -3.91188 -5.71493 
3249 2 3.03355 -4.6481 -5.74267 
153 1 4.58142 -3.99051 -5.29894 
1863 1 3.69854 -4.23603 -4.94798 
1034 1 5.91662 -5.1305 -5.71866 
1372 1 6.00771 -3.72502 -6.17471 
734 1 5.32555 -4.75904 -5.15383 
3080 2 6.57304 -4.20077 -4.67768 
1459 1 -6.35093 -2.70529 -6.00729 
831 1 -6.68368 -3.19434 -4.99138 
2890 2 -5.79711 -2.56577 -5.04672 
2388 1 -4.59792 -2.70914 -5.03269 
2974 2 -5.84084 -1.79011 -5.02193 
2844 2 -3.6678 -2.3215 -5.7699 
477 1 -3.85727 -3.6048 -5.07328 
2480 1 -2.33297 -2.62153 -6.08802 
1835 1 -2.7028 -2.777 -5.23708 
139 1 -0.74385 -2.99607 -5.30199 
2105 1 -0.180117 -2.34258 -6.39866 
3354 2 0.180277 -2.97171 -4.79779 
3585 2 0.285968 -2.04766 -4.65792 
1611 1 1.11519 -2.72165 -5.44198 
2187 1 1.24457 -1.60693 -4.76814 
2830 2 2.46226 -3.27653 -5.58819 
3356 2 2.47678 -2.54943 -5.34438 
480 1 3.46241 -3.2114 -4.82765 
1313 1 3.35719 -2.3976 -5.70752 
110 1 4.5521 -3.09694 -5.04189 
483 1 3.85429 -2.30733 -4.94889 
1472 1 5.80579 -4.02589 -5.35945 
2360 1 5.651 -3.06908 -5.22063 
148 1 5.4016 -2.34485 -4.96291 
2106 1 6.57849 -3.1445 -5.76625 
2721 1 6.43797 -2.40827 -5.59145 
3173 2 6.63249 -3.43342 -4.7898 
1340 1 -6.64616 -1.22748 -5.70143 
1354 1 -7.18114 -2.58142 -5.4061 
2993 2 -6.18576 -1.1546 -4.73716 
1151 1 -5.8076 -1.07387 -6.06987 
1800 1 -5.59605 -1.79933 -6.05597 
2300 1 -4.89254 0.324624 -4.589 
56 1 -4.66761 -1.79714 -4.92428 
408 1 -5.22331 -1.46686 -4.20801 
3543 2 -3.97152 -1.54222 -5.64776 
3256 2 -3.77384 -0.751835 -5.4304 
871 1 -2.14625 -2.10076 -5.44335 
900 1 -2.77832 -1.288 -5.69108 
827 1 -3.32909 -1.19412 -4.38908 
2077 1 -2.00205 -1.13566 -5.02482 
1074 1 -0.455777 -2.15334 -5.47592 
969 1 -1.40559 -2.08331 -5.06862 
2057 1 -1.08464 -1.25723 -5.0293 
851 1 0.63984 -1.06196 -5.5683 
1057 1 -0.358619 -1.27611 -5.56309 
3500 2 0.169079 -1.27519 -4.48967 
1777 1 1.31698 -0.753871 -5.35887 
1700 1 1.65446 -1.16733 -3.99688 
3557 2 2.48352 -1.78075 -5.16448 
2995 2 4.49293 -0.860797 -5.66566 
76 1 3.55518 -1.70119 -6.37761 
296 1 3.9308 -1.06922 -4.71629 
2730 1 3.50508 -1.48797 -5.37916 
169 1 3.33047 -1.93335 -4.47844 
1830 1 4.61263 -1.90908 -4.65453 
1207 1 6.42556 -1.70484 -5.24468 
194 1 7.05183 -1.15816 -4.71734 
656 1 5.55981 -1.55894 -5.10991 
1369 1 7.12039 0.815443 -5.22268 
3267 2 -6.01573 -0.436354 -4.77264 
90 1 -5.92913 -0.255335 -5.8069 
493 1 -5.21415 -0.0334552 -5.35161 
3144 2 -3.92817 0.014125 -5.24663 
2861 2 -3.99402 0.783161 -5.13285 
580 1 -2.6335 -0.593235 -4.93368 
857 1 -1.95911 0.233548 -4.73717 
1380 1 -0.790695 -0.268107 -5.20485 
400 1 -0.896296 0.652094 -5.09287 
1837 1 0.0713924 -0.374083 -5.42908 
1971 1 0.0825304 0.546087 -5.32562 
1890 1 1.1983 0.429908 -4.55206 
3555 2 -0.0368577 -0.497869 -4.42453 
1618 1 0.869818 0.054457 -5.29819 
2237 1 1.08054 -0.477563 -4.48256 
3449 2 2.34198 -0.979693 -4.98492 
3383 2 2.07745 -0.110023 -4.78587 
530 1 3.42017 -0.695701 -5.24121 
2848 2 4.30994 0.560764 -5.40849 
3317 2 4.32747 -0.151919 -5.67106 
2013 1 3.07645 -1.18713 -4.28892 
1364 1 4.93676 -1.32883 -4.23551 
1648 1 5.31736 -0.714399 -4.94124 
346 1 6.26295 -0.781652 -5.07237 
34 1 6.01647 0.600718 -5.2665 
2297 1 6.64873 0.0617315 -5.02591 
654 1 6.92531 0.745171 -4.20932 
1229 1 -6.81589 1.61313 -5.79307 
499 1 -6.01535 0.625592 -5.74922 
2061 1 -5.34342 0.945619 -5.19163 
521 1 -5.42393 1.78861 -4.85581 
2597 1 -4.90831 0.81633 -5.90573 
2529 1 -2.86041 1.09768 -5.51774 
2320 1 -3.21655 1.90604 -5.6687 
3062 2 -4.27925 1.48849 -5.06185 
2846 2 -1.82085 0.923157 -5.83775 
3117 2 -1.97 1.70282 -5.61621 
2601 1 -2.91583 0.380824 -5.3491 
1002 1 -2.73256 0.565716 -4.57512 
1661 1 -1.22202 1.47326 -4.93547 
1432 1 0.680351 1.12386 -5.10792 
46 1 -0.625233 2.53685 -5.07544 
867 1 1.32413 0.707385 -5.65704 
3443 2 2.06421 0.805641 -4.96695 
1997 1 2.65998 1.00993 -5.86793 
221 1 3.17009 1.20428 -5.20171 
47 1 3.22853 0.30267 -4.8439 
3364 2 4.28926 1.37652 -5.29518 
1895 1 5.51499 1.3147 -5.10326 
2130 1 5.66669 2.91715 -4.61175 
2151 1 7.20106 1.79952 -5.06582 
1684 1 6.43507 1.30888 -4.84409 
3060 2 6.31789 2.01481 -5.80607 
2541 1 -6.98135 2.5452 -5.72601 
928 1 -6.01777 1.5144 -5.54517 
491 1 -6.34488 2.51753 -5.25293 
1607 1 -4.98031 1.75262 -5.87394 
1965 1 -5.50414 2.3732 -5.49816 
561 1 -4.0731 2.01246 -6.07061 
2490 1 -3.21449 2.5284 -5.00304 
1543 1 -3.02934 2.49089 -6.26054 
2845 2 -4.34403 2.33461 -4.9593 
3456 2 -4.53151 3.17957 -4.56759 
2945 2 -2.28973 2.40212 -5.40031 
2208 1 -0.999545 2.26984 -5.84665 
1775 1 -1.54307 2.22207 -4.64737 
883 1 -1.30844 3.16262 -5.77062 
1744 1 0.131633 3.07 -4.71906 
2406 1 0.582582 2.14617 -4.84807 
1375 1 1.02263 1.87795 -5.68692 
1763 1 0.816338 2.89947 -5.27381 
1639 1 2.3153 2.74141 -5.31316 
673 1 2.88411 2.04521 -5.6368 
785 1 3.01314 2.73801 -6.1191 
3388 2 3.85088 2.06733 -5.29492 
3433 2 3.80681 2.7962 -5.34753 
2066 1 4.6908 4.12719 -5.19996 
2584 1 5.51762 2.06352 -4.93965 
3298 2 6.017 3.40725 -5.66936 
2231 1 5.0429 3.57249 -4.67361 
806 1 6.94564 2.83344 -5.08376 
822 1 -6.53699 3.41341 -5.1602 
3414 2 6.04747 2.72894 -5.86254 
698 1 -6.72426 4.49354 -4.97301 
1169 1 -5.91147 3.86837 -5.11733 
443 1 -5.35747 3.36559 -5.50419 
2200 1 -5.45606 4.49545 -5.64155 
668 1 -4.85994 3.7567 -5.92844 
2523 1 -3.59982 2.8687 -5.74866 
59 1 -3.15208 3.73701 -5.7906 
1862 1 -3.42074 3.51561 -4.83718 
1833 1 -3.93775 3.69572 -5.5831 
2977 2 -2.32134 3.20553 -5.25426 
2865 2 -2.44838 3.92787 -5.04211 
2326 1 -1.44843 4.00378 -5.52136 
3378 2 -0.245306 3.72912 -5.86944 
324 1 0.918457 4.37143 -5.6248 
1521 1 0.900007 3.80611 -6.19299 
1141 1 1.60513 4.38086 -5.12038 
1923 1 3.22944 4.36339 -5.95007 
588 1 2.79161 3.43065 -5.62832 
103 1 1.71376 3.39757 -5.29732 
504 1 2.41812 4.15858 -5.4295 
268 1 3.65741 3.52718 -6.13299 
2894 2 3.76944 3.50722 -5.04081 
1398 1 4.47697 4.99577 -4.84102 
3013 2 3.40686 4.29459 -4.8361 
2917 2 5.88891 4.15874 -5.36352 
115 1 7.20078 3.77069 -5.47436 
3238 2 -6.53579 4.56912 -6.25979 
297 1 -5.9391 5.05847 -5.08586 
3045 2 -6.61745 5.2986 -5.86321 
1490 1 -6.10895 6.06192 -4.9717 
2323 1 -6.78174 5.56282 -4.67476 
2573 1 -4.84179 5.51929 -5.49089 
2308 1 -4.5986 4.56774 -5.50055 
1232 1 -3.72258 4.61125 -5.63497 
1772 1 -4.01958 5.17091 -4.82883 
1499 1 -2.20178 4.96823 -5.92311 
3458 2 -2.78079 4.77869 -5.00738 
2988 2 -2.91455 5.6439 -4.83729 
287 1 -1.61194 4.87413 -5.232 
3207 2 -0.612002 5.29748 -5.51722 
3392 2 -0.454929 4.52324 -5.73208 
1435 1 0.304586 6.20467 -5.44308 
2598 1 0.327121 4.93411 -4.91475 
1196 1 0.126662 5.70842 -4.5153 
586 1 1.25865 5.22832 -5.04537 
492 1 2.32018 5.01493 -5.62085 
2762 2 3.18312 5.83391 -4.37319 
486 1 2.75215 5.46353 -6.09618 
295 1 3.47066 5.16111 -5.79171 
2669 1 4.29483 5.42444 -5.5372 
2814 2 3.27366 5.14645 -4.69373 
2927 2 5.55151 4.89473 -5.28241 
3257 2 5.53135 5.61842 -5.24442 
1667 1 6.84541 4.63929 -5.50571 
2136 1 6.64564 5.79573 -5.28745 
2703 1 6.26882 5.59004 -4.31706 
3147 2 -6.95687 6.0423 -5.98747 
3330 2 -6.945 6.71419 -5.6147 
1004 1 -5.61394 6.08276 -6.81733 
1481 1 -5.95499 6.78196 -4.98172 
1235 1 -4.36251 6.29442 -5.37102 
2023 1 -5.66623 5.80643 -5.68454 
1893 1 -5.20524 6.54477 -5.14904 
1725 1 -3.77045 5.47153 -5.82682 
2033 1 -4.16331 7.15185 -5.49331 
2332 1 -4.17196 6.09202 -4.44589 
658 1 -2.76953 7.0485 -5.81451 
101 1 -1.92616 6.55366 -4.98594 
3265 2 -3.1399 6.39021 -4.73429 
2018 1 -1.74307 6.67282 -6.16808 
1665 1 -1.9318 5.72738 -5.44424 
3455 2 -0.809789 6.79946 -5.37423 
3018 2 -0.802362 6.01925 -5.43357 
2626 1 0.191602 7.10061 -5.50434 
1567 1 0.717865 6.9779 -4.78942 
3128 2 1.26037 7.1977 -5.99257 
2168 1 2.27312 6.12514 -5.58463 
2096 1 0.995597 6.06522 -4.93626 
825 1 1.46466 6.94189 -4.77849 
2564 1 2.38089 6.98391 -5.1358 
1249 1 2.41005 6.7619 -6.30313 
329 1 4.2869 7.03689 -5.90174 
302 1 4.20152 5.9844 -4.78138 
862 1 3.36179 6.0408 -5.66102 
1992 1 4.30021 6.36753 -6.1362 
2172 1 3.72466 6.78156 -4.99198 
2926 2 4.96467 7.13581 -5.01199 
2971 2 5.19937 6.32405 -5.19046 
60 1 6.5199 6.32005 -4.69624 
2539 1 6.30189 6.78592 -5.42171 
209 1 5.2756 6.67017 -6.20612 
1312 1 -6.73103 -5.03456 -4.16089 
2166 1 -6.98656 -5.7487 -3.51325 
1673 1 -6.75885 -6.79424 -3.53564 
3228 2 -5.56552 -6.59314 -3.71457 
3375 2 -5.92157 -5.80557 -3.47412 
1730 1 -4.54455 -6.16864 -3.97088 
1344 1 -4.19028 6.47413 -3.70195 
3413 2 -3.49905 -6.39292 -4.48703 
2089 1 -4.40558 -6.94725 -3.98093 
104 1 -2.34167 -6.25332 -4.46735 
531 1 -1.63657 -6.89326 -4.02559 
2587 1 -0.473695 6.72369 -3.42977 
1107 1 -0.38327 -6.90204 -4.1886 
3236 2 0.491524 -6.64709 -3.65189 
635 1 1.67965 -6.69085 -4.85946 
1694 1 1.68359 -7.16428 -4.01675 
1511 1 1.41382 -6.11919 -4.02647 
3303 2 2.47706 -6.51502 -3.88907 
709 1 3.74254 -6.77556 -4.44636 
2469 1 3.7426 -6.27007 -3.81157 
2025 1 4.57525 -6.64532 -3.57734 
538 1 5.36685 -6.61716 -3.30007 
677 1 5.08116 -5.85477 -3.46367 
1000 1 6.63312 -5.58955 -3.91038 
929 1 6.60288 -6.47876 -4.27512 
1994 1 -6.47998 -4.23175 -4.37273 
2029 1 7.16198 -4.76647 -3.45153 
2896 2 -6.05875 -5.00211 -3.26886 
1872 1 -6.1973 -5.57193 -4.66363 
992 1 -5.16001 -5.49437 -4.23259 
3562 2 -3.55684 -5.50343 -4.05223 
3536 2 -3.79963 -4.64036 -3.97735 
2310 1 -2.39449 -5.36864 -4.24333 
2496 1 -2.91638 -4.92776 -3.20698 
959 1 -2.59799 -5.87227 -3.54823 
1747 1 -0.765443 -4.99534 -3.91117 
2524 1 -1.68384 -6.01421 -3.91412 
6 1 -1.04918 -5.65038 -3.24183 
2038 1 -0.479625 -5.79043 -4.19048 
1629 1 -0.231663 -4.95806 -4.71149 
2969 2 0.207641 -5.95599 -3.43011 
1799 1 0.582246 -5.09162 -4.22244 
799 1 1.4905 -4.92803 -4.53383 
1327 1 1.14364 -5.42324 -3.64828 
2918 2 2.54163 -5.75594 -3.93968 
3379 2 2.08187 -5.11742 -3.68543 
1075 1 3.43267 -5.89001 -4.71372 
440 1 4.16006 -5.6339 -3.44662 
2145 1 3.34334 -5.19172 -3.88443 
893 1 3.06533 -5.57548 -3.02732 
1146 1 3.96047 -4.54363 -3.17291 
3340 2 4.488 -4.88226 -4.27225 
190 1 5.92819 -5.33447 -4.31244 
1493 1 5.41687 -5.09166 -3.64416 
2571 1 6.45517 -4.73129 -3.72503 
168 1 5.70926 -6.11849 -4.19482 
85 1 6.25333 -3.93228 -3.64425 
1013 1 7.18751 -3.9776 -3.65429 
3286 2 -6.18767 -4.24581 -3.1343 
517 1 -6.84758 -3.56045 -4.24433 
335 1 7.09824 -3.10255 -3.691 
1955 1 -5.7659 -4.8556 -4.43905 
874 1 -4.68194 -4.80296 -4.57551 
1144 1 -5.25952 -4.06247 -3.98954 
935 1 -5.9476 -3.62894 -4.1614 
3376 2 -3.98981 -3.93999 -3.8006 
3083 2 -3.92335 -3.06402 -3.71381 
647 1 -1.64546 -5.14547 -3.65741 
728 1 -2.32784 -4.27379 -3.42367 
1470 1 -2.81796 -4.70054 -4.3351 
458 1 -1.33145 -4.26797 -3.22411 
1431 1 -0.978566 -3.25878 -3.46268 
2916 2 -1.88942 -3.55201 -4.3991 
401 1 -0.691487 -4.10419 -3.7336 
27 1 0.0881071 -4.29544 -4.10378 
632 1 0.703285 -3.86921 -3.53014 
566 1 1.11682 -4.19899 -4.14967 
1069 1 1.047 -4.67026 -3.31521 
3015 2 1.9924 -3.54472 -3.52187 
1385 1 3.21666 -3.25324 -3.59086 
3230 2 2.0847 -4.32859 -3.60291 
2306 1 2.74153 -3.64288 -4.43526 
891 1 2.92308 -4.46963 -4.49673 
3244 2 4.39126 -4.10973 -4.17704 
665 1 3.30316 -4.16811 -3.76376 
1703 1 5.4037 -4.26404 -3.52838 
2211 1 5.4865 -4.51234 -4.37096 
72 1 6.09654 -3.10705 -3.43627 
523 1 -6.87579 -2.57021 -4.25787 
1071 1 -4.90884 -3.19473 -4.38969 
1299 1 -6.00783 -2.68288 -4.09485 
1446 1 -3.81085 -2.86809 -4.72833 
2674 1 -3.06128 -2.55659 -4.46189 
3229 2 -4.24308 -2.35594 -3.51324 
1928 1 -3.03387 -3.38572 -4.33955 
2400 1 -2.96409 -2.57441 -3.59751 
2102 1 -1.48122 -2.50155 -2.92529 
3198 2 -1.96935 -2.83951 -4.21331 
954 1 -0.808766 -2.43809 -3.59862 
607 1 -0.0578982 -3.35973 -3.86965 
2020 1 0.0707583 -2.15123 -3.63823 
2434 1 0.431281 -2.82769 -3.27076 
984 1 1.33473 -2.59627 -4.69758 
202 1 0.927809 -3.14782 -3.95606 
1237 1 2.99702 -2.28877 -3.18466 
1843 1 2.04463 -3.06548 -4.48504 
303 1 2.99953 -2.61097 -4.25997 
2857 2 4.32447 -3.38604 -3.87464 
3353 2 4.25019 -2.59913 -3.7729 
2336 1 5.24648 -3.73724 -4.84128 
2411 1 5.22633 -2.48072 -4.21469 
2858 2 6.42586 -2.82266 -4.35361 
431 1 5.46675 -3.44416 -3.99885 
960 1 -7.07313 -1.94489 -4.85123 
2054 1 -7.14737 -1.49903 -3.97702 
1145 1 7.08415 -2.21369 -3.46109 
1627 1 -6.59127 -0.886684 -3.7365 
1999 1 -6.16031 -1.79046 -3.90267 
52 1 -5.19692 -0.669171 -4.00103 
1514 1 -5.1114 -2.3109 -4.15888 
3447 2 -4.20776 -1.6439 -3.40765 
1316 1 -3.869 -1.92079 -4.53006 
3470 2 -4.43141 -1.03338 -3.09388 
2465 1 -2.8019 -1.74268 -4.90829 
2302 1 -3.20257 -1.67477 -3.54848 
2748 2 -2.2287 -1.50619 -3.96283 
2766 2 -1.9283 -2.11516 -4.11013 
2044 1 -0.819097 -2.18744 -4.35849 
2241 1 -0.971952 -1.41953 -4.23657 
1266 1 -1.33203 -1.41768 -3.20353 
2395 1 -0.484745 -1.65199 -3.34984 
2542 1 -0.070225 -0.77453 -3.13907 
858 1 0.65861 -1.35724 -3.34587 
2722 1 1.8999 -0.293592 -3.71746 
2298 1 1.05644 -2.08567 -3.78803 
999 1 3.01582 -1.12464 -3.15911 
922 1 1.97601 -2.16105 -4.30953 
876 1 2.98124 -0.357164 -2.48692 
130 1 2.5952 -1.83624 -3.74373 
3134 2 3.96039 -1.8954 -3.70666 
2914 2 4.04541 -1.04393 -3.46971 
1548 1 5.26179 -1.66429 -3.33265 
844 1 4.64476 -2.12534 -2.66116 
2433 1 6.88559 -1.56895 -2.89777 
3116 2 6.24386 -2.03692 -4.1738 
2856 2 6.05124 -1.27782 -4.04359 
3186 2 -6.28606 0.408237 -4.66048 
253 1 -6.6891 0.110192 -3.66818 
1781 1 7.04497 0.4284 -3.38644 
1343 1 -5.85817 -0.475152 -3.33754 
829 1 -5.71783 1.33263 -3.64226 
2423 1 -5.46624 0.194944 -3.94312 
2132 1 -4.25196 -0.176433 -4.08379 
1793 1 -3.84494 0.464608 -3.55542 
2278 1 -4.24357 -1.10149 -4.33254 
500 1 -4.43034 0.796536 -3.91737 
111 1 -3.43075 -0.521278 -3.47962 
978 1 -3.70919 1.13417 -2.86886 
2605 1 -3.25084 -0.158762 -4.23518 
2789 2 -2.1622 -0.622063 -3.84233 
3490 2 -2.46218 0.106947 -3.637 
1531 1 -1.34279 -0.38483 -4.58312 
1910 1 -1.15381 0.171934 -3.64329 
2950 2 -0.0421542 0.283589 -4.22668 
1064 1 -1.08396 -0.745701 -3.58591 
1296 1 0.94241 0.400845 -3.66906 
1706 1 0.213421 0.602754 -3.15079 
692 1 0.876603 -0.419694 -3.62185 
1337 1 1.92036 0.54508 -3.69933 
506 1 2.70302 -0.571714 -3.83998 
1176 1 3.52963 -0.339269 -4.43032 
2068 1 4.71082 -0.314781 -4.51818 
234 1 4.8429 -0.0373413 -3.815 
3483 2 3.80921 -0.286867 -3.30233 
823 1 5.02542 -0.818758 -3.44575 
319 1 5.10406 0.632334 -4.63825 
720 1 7.08153 -0.22779 -4.30578 
1575 1 6.92082 -0.728731 -3.37382 
2902 2 5.92072 -0.480969 -4.04627 
3263 2 -6.48656 1.11554 -4.50616 
3260 2 -6.50315 1.87696 -4.43636 
2311 1 -6.64419 1.99223 -3.14016 
385 1 -5.14703 1.19888 -4.19939 
2383 1 -4.80322 1.97345 -3.90993 
2177 1 -4.00219 1.5407 -3.78454 
697 1 -3.4442 0.930528 -4.14482 
3588 2 -2.54796 1.00748 -3.44712 
154 1 -3.0977 1.55089 -4.7959 
1880 1 -1.39621 0.78407 -4.29375 
1484 1 -2.08877 1.12989 -4.69267 
640 1 -1.62351 1.48121 -3.82777 
2285 1 -1.83082 2.30095 -3.55094 
446 1 0.739682 1.27995 -3.4551 
2860 2 -0.480956 1.88709 -4.14636 
3196 2 -0.193246 1.1104 -4.1121 
2708 1 1.05004 1.41355 -4.27493 
583 1 1.80602 1.47143 -3.47095 
2328 1 1.43405 2.16684 -3.48421 
3241 2 1.8993 1.64381 -4.80849 
886 1 2.77339 0.3646 -4.09001 
1614 1 2.53567 1.41343 -3.86469 
946 1 2.92684 1.99238 -4.46827 
2084 1 4.69624 0.907116 -3.4802 
2637 1 3.17694 1.07658 -4.34704 
941 1 4.07836 0.491893 -4.3262 
1568 1 4.77946 1.3162 -4.27448 
2819 2 5.99159 0.255896 -3.92049 
3209 2 5.8176 1.04921 -3.83953 
1402 1 6.30975 2.33313 -4.70723 
3033 2 -6.61748 2.53354 -4.15709 
2751 2 -6.81552 3.25418 -3.98766 
92 1 -5.61661 3.0303 -4.75225 
412 1 -5.54844 2.45386 -4.18625 
120 1 -4.92386 2.8239 -3.51366 
1899 1 -5.54324 3.50261 -3.86685 
2436 1 -3.39345 2.18773 -4.15888 
2687 1 -4.09104 2.42102 -3.48161 
2466 1 -3.64836 3.03127 -4.00951 
1986 1 -2.6674 2.87477 -4.3729 
3120 2 -2.87945 1.74452 -3.30235 
2489 1 -2.35279 1.86583 -4.41744 
892 1 -1.57338 2.76912 -2.78599 
3006 2 -0.754046 2.55442 -3.88412 
301 1 0.249087 3.42568 -3.99309 
620 1 0.548077 2.52489 -4.06305 
3063 2 1.53603 2.43743 -4.5656 
2190 1 1.76356 2.80555 -3.01576 
1677 1 2.46379 3.21835 -3.7751 
1644 1 2.77466 2.80853 -4.66724 
2575 1 2.48186 2.39445 -3.67223 
1423 1 3.75361 2.32129 -4.21773 
2021 1 3.93466 1.46288 -4.13404 
556 1 4.377 2.32527 -3.6709 