ITEM: TIMESTEP
46100
ITEM: NUMBER OF ATOMS
3594
ITEM: BOX BOUNDS pp pp pp
-7.2087731829124300e+00 7.2087731829124300e+00
-7.2087731829124300e+00 7.2087731829124300e+00
-7.2087731829124300e+00 7.2087731829124300e+00
ITEM: ATOMS id type x y z 
1399 1 -6.35283 -6.26702 -6.29979 
239 1 -6.22239 7.14432 -6.31179 
1410 1 -7.16661 -6.90574 -6.46858 
3477 2 -5.00159 -6.88876 -5.92779 
1906 1 -5.74546 -6.5743 -6.73696 
2018 1 -4.95608 -6.27736 -6.89962 
2248 1 -3.88499 -6.45938 -6.77872 
2944 2 -2.69315 -7.05552 -6.5941 
3574 2 -2.84754 -6.20902 -6.56407 
1893 1 -1.65619 -6.59843 -6.85674 
897 1 -1.25965 -5.6718 -5.8858 
2626 1 -0.421025 -6.10374 -5.90896 
2083 1 -0.919768 -6.8742 -6.29634 
1308 1 -1.77244 -6.69435 -5.86534 
533 1 0.251156 -6.35565 -6.39934 
3019 2 -0.651308 -6.14222 -7.10511 
1643 1 0.0542287 -7.20206 -6.12645 
1385 1 0.568748 -7.10053 -6.77835 
2246 1 1.22502 -5.93611 -6.64096 
2024 1 1.44544 -7.01524 -6.92798 
774 1 2.12062 -6.44933 -6.64121 
1425 1 2.36945 -6.96201 -5.87818 
1234 1 2.25936 -5.9655 -5.93107 
313 1 3.05283 -6.71053 6.96371 
3442 2 3.37738 -6.12199 -6.28884 
3587 2 3.51624 -6.83279 -6.41641 
932 1 4.60638 -6.60981 -6.15864 
1970 1 4.47003 -7.12668 -6.75242 
3208 2 5.71438 -6.32731 -6.67305 
2787 2 5.6434 -7.06747 -7.03228 
13 1 6.2742 -6.63326 -5.8623 
2200 1 6.78896 -5.90577 -6.88224 
1345 1 -7.17768 -5.89145 -6.09966 
335 1 -5.73425 -5.60303 -6.74333 
572 1 -6.30784 -4.66513 -6.35515 
2727 1 -6.42226 -5.56296 -6.02026 
2546 1 -4.88684 -5.38081 -6.94307 
1473 1 -5.64444 -4.74485 -6.82235 
2702 1 -4.25364 -5.66353 -6.52042 
1181 1 -3.66599 -5.79025 7.14586 
959 1 -4.11929 -5.08122 -5.76477 
2301 1 -3.79976 -4.71912 -7.01845 
3061 2 -3.22341 -4.5091 -6.29315 
2981 2 -3.08509 -5.3596 -6.42686 
2630 1 -1.77733 -5.77145 -6.62526 
1822 1 -2.10859 -4.89561 -6.72456 
3484 2 -0.85501 -5.39729 -6.96425 
2808 2 -1.00429 -4.63751 -6.815 
1122 1 0.133637 -5.40286 -5.91311 
607 1 -0.0692878 -4.51931 -5.8772 
1347 1 0.199754 -4.94914 -6.56687 
1587 1 1.06891 -5.02777 -6.40588 
1442 1 1.90496 -5.47793 -6.52577 
2628 1 1.9631 -4.30854 -6.56706 
2537 1 2.62871 -5.79873 -7.14623 
1836 1 2.32241 -4.98557 -6.83733 
2957 2 3.10997 -5.45539 -6.00144 
589 1 4.3825 -5.84952 -6.62134 
26 1 3.13491 -4.64199 -7.03744 
893 1 4.03316 -4.9189 -6.32531 
2812 2 5.54964 -5.60723 -6.6781 
3212 2 5.11285 -4.72074 -6.60328 
639 1 6.45971 -5.69549 -5.90129 
1273 1 7.15482 -4.7958 -6.19444 
1918 1 6.46936 -5.08947 -6.85603 
153 1 6.13446 -4.83065 -5.89865 
2975 2 -6.94393 -4.41755 7.16731 
1654 1 -6.13287 -3.71351 -6.26748 
3126 2 -7.15148 -3.52874 -7.06901 
1020 1 -4.54194 -4.66213 -6.53712 
937 1 -5.10631 -3.96465 -6.69323 
3041 2 -3.48375 -3.77695 -6.15332 
139 1 -4.25405 -3.69443 -6.96651 
890 1 -2.44215 -3.54091 -6.77717 
2397 1 -2.70307 -4.30033 7.06091 
2057 1 -3.1629 -3.38537 -7.13913 
3332 2 -1.15344 -3.8089 -6.58986 
250 1 -0.078007 -4.10427 -6.70901 
541 1 -0.0759322 -3.38781 -6.1184 
1313 1 0.694212 -4.11133 -6.01209 
1644 1 1.86233 -3.45299 -6.40205 
779 1 2.94137 -3.80997 -6.75478 
2709 1 2.24373 -4.14876 7.05486 
2431 1 3.8648 -4.26904 -7.04889 
1527 1 3.78735 -4.10598 -6.15229 
3266 2 4.98005 -3.82646 -6.34516 
1697 1 6.41428 -4.11645 -6.68315 
2126 1 5.98716 -3.34706 -5.95112 
2015 1 6.88526 -3.75076 -5.95704 
148 1 -6.92659 -2.95051 -5.71631 
2360 1 -6.15459 -2.669 -6.24016 
519 1 -6.44577 -2.01147 -6.95774 
90 1 -5.33856 -2.14337 -6.1922 
1640 1 -5.3855 -3.08787 -6.3793 
911 1 -3.54038 -2.6507 -6.95463 
2869 2 -3.46495 -3.11698 -5.94077 
2381 1 -4.36758 -2.90363 -6.88275 
18 1 -4.42969 -2.1377 -6.5467 
743 1 -2.57994 -2.64673 -6.57784 
323 1 -2.37285 -1.92811 -7.02959 
1629 1 -2.10168 -3.24283 -5.86683 
667 1 -2.477 -2.12654 -5.92403 
3234 2 -1.24417 -2.95162 -6.59561 
3105 2 -1.39133 -2.08118 -6.4083 
1489 1 -0.0101259 -2.94912 -6.82752 
154 1 0.553893 -2.62904 -5.94183 
2511 1 -0.229956 -2.23152 -6.03824 
2804 2 0.906611 -2.43371 -7.12915 
1859 1 1.01062 -3.33384 -5.94669 
2050 1 1.73809 -2.60704 -6.5269 
3347 2 1.07772 -3.20575 7.07977 
190 1 3.08246 -2.34009 -6.45318 
1897 1 2.59839 -2.97889 -6.72436 
1648 1 3.72733 -3.29113 -6.72511 
675 1 3.79251 -2.38484 -6.68455 
2767 2 4.67262 -3.13487 -6.20173 
3550 2 4.90804 -2.4581 -6.0212 
42 1 5.73776 -1.9992 7.18129 
2101 1 5.88958 -2.36538 -6.43391 
3087 2 7.10959 -2.78741 -6.8052 
1029 1 5.93935 -3.33947 -7.02594 
936 1 -6.30259 -1.80978 -6.04421 
923 1 -6.56637 -1.26495 -6.8582 
2560 1 -5.62895 -1.23172 -5.9562 
571 1 -4.63863 -1.25861 -6.34535 
2892 2 -5.56044 -1.15826 -7.01559 
1928 1 -3.23686 -1.79386 -6.67437 
2601 1 -3.94153 -0.900866 -6.58856 
2699 1 -2.65689 -1.20842 -6.40894 
2390 1 -2.09286 -0.851231 -7.07115 
2796 2 -1.6796 -0.618133 -5.82885 
1485 1 -0.759577 -0.524904 -6.82426 
460 1 -0.46278 -1.08835 -6.06028 
3088 2 0.574129 -0.911665 -6.79346 
1374 1 -0.363549 -1.78852 -6.90047 
3151 2 0.859074 -1.74855 -6.70436 
1695 1 1.64134 -1.79742 -6.02615 
76 1 1.83128 -0.815353 -6.25194 
1418 1 1.85923 -1.31971 -7.03093 
309 1 2.32328 -2.05553 -6.47606 
40 1 2.69861 -1.25614 -6.16007 
1981 1 3.69348 -1.35569 -6.52431 
453 1 4.3742 -1.01509 -6.88354 
296 1 3.58635 -1.73021 -5.79679 
1876 1 3.38183 -0.701495 -6.20135 
2072 1 4.80635 -1.82742 -7.05008 
2122 1 5.39687 -1.17715 -6.61421 
2840 2 6.91082 -1.98339 -6.5566 
2797 2 6.83912 -1.04706 -6.29471 
2510 1 6.09122 -1.24716 7.18527 
2617 1 -6.28315 -0.484363 -6.47647 
1698 1 -6.73599 0.40758 -6.35875 
37 1 -6.96075 -0.403639 -6.90108 
3097 2 -5.58384 0.343856 -6.64176 
3360 2 -5.43535 -0.300998 -7.01245 
2318 1 -4.96875 0.439135 -5.82727 
408 1 -3.92427 0.977257 -6.29445 
415 1 -4.20395 0.117706 -6.247 
1772 1 -3.40196 0.412304 -5.88924 
2326 1 -3.34081 -0.410308 -6.28285 
2013 1 -2.61421 -0.23612 -6.54051 
2081 1 -2.89155 0.532961 -6.44163 
502 1 -0.840469 -0.0602824 -6.16144 
2042 1 -1.28118 0.573353 -6.69428 
343 1 -1.44892 -0.240131 -6.96082 
3311 2 0.42624 -0.242656 -6.53996 
2928 2 0.13782 0.479146 -6.39833 
1619 1 -0.451882 0.0648922 7.02282 
1843 1 1.60914 -0.362283 -6.81479 
1708 1 1.3857 0.536503 -6.7421 
2080 1 1.22061 0.153385 -5.91521 
308 1 1.95997 0.0482724 -6.05368 
2960 2 2.49976 0.333423 -7.11524 
3195 2 2.62298 -0.464543 -7.15935 
303 1 3.8551 -0.247727 -6.79084 
2730 1 3.49965 0.396161 -6.45954 
1218 1 4.46647 0.294603 -6.58662 
970 1 5.86036 -0.499027 -6.81656 
2418 1 4.9572 -0.376789 -6.65755 
3135 2 6.61833 -0.204591 -6.1203 
3038 2 6.34151 0.603792 -6.009 
2353 1 7.04943 0.351031 -7.02749 
817 1 -6.98826 1.39664 -5.98155 
2724 1 7.1637 2.05318 -6.34354 
3127 2 -5.84311 1.10383 -6.63394 
1232 1 -4.58968 1.65952 -6.54086 
305 1 -4.90225 1.29802 -5.80323 
433 1 -3.65102 1.62434 -5.96727 
1525 1 -2.04277 0.862689 -6.8978 
2108 1 -2.88958 1.27607 -6.31236 
1265 1 -2.20811 1.80239 -6.82374 
3329 2 -3.39778 0.804989 7.08928 
287 1 -1.36962 1.5887 -6.93782 
1057 1 -1.22687 2.18052 -6.22396 
1971 1 -0.881927 1.29148 -6.26077 
3078 2 0.157373 1.27634 -6.41501 
1661 1 -0.604686 1.08797 -7.20624 
2712 1 1.48028 1.3803 -6.54708 
867 1 1.94538 1.12132 -5.83872 
3459 2 2.37399 1.15144 -6.97382 
3393 2 2.42928 1.88973 -6.8821 
1368 1 3.40198 1.32448 -6.22385 
32 1 4.03975 1.94192 -6.36923 
2062 1 3.54727 0.941337 -7.17001 
312 1 5.44072 0.338321 -6.73589 
199 1 5.42518 1.35223 -6.75269 
805 1 4.33803 1.085 -6.49366 
795 1 5.0236 1.00736 -6.04503 
3060 2 6.12234 1.45879 -6.00516 
1987 1 -7.18521 1.22603 -6.78914 
2386 1 6.56733 1.67495 -7.05472 
3007 2 -6.08976 1.85801 -6.53226 
3140 2 -6.37914 2.5504 -6.50852 
565 1 -5.24767 2.39584 -6.78564 
1336 1 -5.24505 2.98675 -6.09565 
2275 1 -3.13392 2.24496 -6.14075 
3093 2 -3.75738 2.27013 -7.10991 
2466 1 -4.47597 2.47618 -6.22649 
2783 2 -4.0667 3.01835 -7.05698 
2694 1 -2.52816 2.78592 -6.44526 
1053 1 -1.80489 2.64144 -6.62508 
1933 1 -0.675412 2.51286 -6.87361 
3444 2 0.140257 2.07995 -6.19627 
2813 2 -0.244241 2.69589 -5.93594 
1932 1 0.531984 3.20017 -7.19282 
1848 1 0.992912 2.61889 -6.55314 
497 1 1.10013 2.10377 7.19922 
171 1 3.53853 2.69253 -6.98176 
3417 2 2.17329 2.60892 -6.9242 
2261 1 3.17671 3.19127 -6.07486 
941 1 3.10748 2.41383 -6.24031 
591 1 4.8425 2.07401 -6.07382 
1677 1 4.05416 2.89606 -6.18001 
478 1 5.3614 2.22508 -6.65519 
1414 1 4.85037 3.05313 -6.12382 
2061 1 6.54819 2.66048 -6.8628 
3414 2 6.12283 2.25868 -5.87162 
115 1 5.92462 2.521 7.14887 
3465 2 -6.53443 3.24805 -6.2786 
2736 2 -6.61798 3.94641 -5.9915 
964 1 -5.47993 4.03066 -6.52999 
507 1 -3.31244 4.35994 -6.47137 
3408 2 -4.26666 3.73449 -6.90693 
3411 2 -4.42587 4.50925 -6.6932 
341 1 -3.19081 3.38729 -6.23602 
1098 1 -2.11286 3.43095 -6.42273 
1370 1 -2.4391 4.6121 -6.40386 
673 1 -1.09329 3.38734 -6.65421 
2401 1 -1.62107 3.91344 -5.8331 
2524 1 -1.38358 4.12365 -6.60149 
2285 1 -0.750525 4.34501 -7.09564 
1639 1 0.495839 4.30031 -6.30723 
1249 1 -0.0613176 3.78758 -7.02254 
3378 2 -0.388739 3.40161 -5.88115 
1924 1 0.799841 3.35345 -6.09432 
3466 2 1.75763 3.94461 -6.352 
3478 2 2.02192 3.26862 -6.62168 
1978 1 3.03011 3.49297 -6.9483 
693 1 2.96773 4.25509 -6.08671 
3551 2 4.08667 3.80017 -7.06149 
2530 1 4.52873 3.71283 -5.70839 
3223 2 3.87645 4.59582 -6.9675 
1068 1 3.7543 3.83494 -5.81606 
2597 1 5.55236 3.27127 -6.77784 
2142 1 4.85622 3.91135 -6.48564 
1616 1 5.70063 4.09627 -6.71084 
1867 1 6.59761 3.46459 -6.72207 
2327 1 7.00821 4.26992 -6.80448 
1727 1 -6.44992 5.5717 -6.74497 
2594 1 -6.29464 4.68165 -7.10042 
1845 1 -5.61268 5.26224 -7.04872 
896 1 -5.84568 5.88112 -6.16144 
754 1 -5.73624 4.85794 -6.254 
1481 1 -3.4809 5.39109 -6.48566 
3471 2 -4.71556 5.24472 -6.66284 
1004 1 -3.46426 5.03678 7.17147 
1344 1 -2.70544 5.31346 -6.09149 
2832 2 -2.28737 5.18576 7.11294 
225 1 -1.48565 5.01002 -6.52376 
1663 1 -0.69765 5.49946 -6.9239 
1767 1 -0.112 4.79966 -6.75221 
1356 1 0.394591 5.35454 -6.20338 
215 1 -0.130808 5.97807 -6.53624 
2675 1 0.673411 4.61666 -7.15445 
3138 2 1.69239 4.68536 -6.33038 
2831 2 1.41491 5.44339 -6.38363 
282 1 0.61403 5.60566 -7.07374 
255 1 2.74945 5.04814 -6.66126 
2627 1 2.56619 5.86959 -6.54746 
3215 2 3.78212 5.39629 -6.78813 
2711 1 5.20173 4.82834 -6.56499 
1965 1 4.65021 5.46779 -6.16182 
2701 1 6.70769 5.202 -6.64611 
1341 1 5.80167 5.31238 -6.30004 
862 1 6.75455 6.11679 -6.614 
1117 1 -6.88611 6.52411 -6.66271 
942 1 -6.01161 6.52204 -5.63833 
3150 2 -4.79211 6.85571 -6.13107 
317 1 -5.78749 6.41356 -6.80269 
3463 2 -4.77515 6.05725 -6.25328 
2446 1 -3.83878 7.03821 -6.7605 
601 1 -3.604 6.43513 -6.17627 
197 1 -3.46078 -7.19653 -5.76727 
1775 1 -3.79758 6.02984 -7.06065 
2342 1 -2.8799 6.21783 -5.78589 
3454 2 -2.28326 5.92837 -6.9552 
3268 2 -2.56387 6.60863 -6.91759 
1506 1 -1.42346 7.00935 -7.03334 
1747 1 -1.37849 5.94311 -6.40509 
1984 1 -1.65865 6.93896 -6.07416 
1093 1 -0.681524 6.67883 -6.61047 
1850 1 0.508056 6.50625 -6.9394 
2492 1 1.91795 6.51675 -6.82468 
2899 2 1.32691 6.27505 -6.09171 
849 1 2.46258 6.56999 -6.11237 
748 1 2.47163 -7.1468 -6.91548 
2790 2 3.63141 6.1656 -6.52304 
3569 2 3.4416 6.83435 -6.63192 
2568 1 4.67052 5.84617 7.03823 
1681 1 4.65065 6.48785 -6.63095 
459 1 5.30731 5.86452 -6.7581 
3539 2 5.82003 6.64961 -7.18627 
829 1 6.09751 6.0461 -5.93544 
2003 1 6.90629 6.86184 6.91359 
760 1 6.55139 6.8174 -6.16715 
1263 1 -6.15873 -6.87754 -5.56657 
2747 2 -7.16561 -6.89501 -5.3326 
3520 2 -5.13218 -6.12601 -5.80297 
2321 1 -5.59643 -6.70909 -5.0268 
2462 1 -4.89351 -6.2651 -4.4266 
392 1 -3.88238 -6.48817 -6.0548 
1149 1 -4.40962 -6.67926 -5.05638 
2002 1 -2.8918 -6.25689 -5.42483 
1435 1 -2.20089 -6.80227 -4.98258 
2439 1 -2.10954 -5.86424 -5.63793 
3322 2 -1.13334 -6.27648 -4.92157 
245 1 0.034589 -6.53161 -5.45279 
427 1 0.333521 7.02014 -5.23829 
3128 2 1.09432 -6.543 -5.80799 
248 1 3.11454 -6.49538 -5.26831 
1837 1 2.22273 -6.51977 -5.12565 
1896 1 4.0471 -6.33377 -5.53227 
452 1 4.36041 7.03068 -5.75551 
3290 2 5.01314 -6.92676 -4.75305 
98 1 4.96298 -6.01959 -5.74984 
522 1 5.35423 -7.03834 -5.86291 
916 1 5.77815 -6.15832 -5.34367 
2825 2 4.76375 -6.26331 -4.52253 
3487 2 -7.17767 -6.04766 -5.03494 
1985 1 6.36365 -6.65527 -4.78901 
2615 1 6.54628 -7.15637 -4.17172 
2137 1 -6.59024 -5.00354 -5.44783 
1291 1 -6.23866 -5.91158 -5.40197 
695 1 -6.10737 -5.24005 -4.63861 
3416 2 -5.21962 -5.42023 -5.77476 
3325 2 -5.41018 -4.70598 -5.55092 
472 1 -3.66499 -5.78791 -5.36423 
642 1 -4.32436 -4.92781 -4.87218 
88 1 -3.47698 -4.76621 -5.20441 
2674 1 -4.35344 -5.76013 -5.08868 
2549 1 -2.03724 -5.07963 -5.83814 
833 1 -2.96333 -5.4688 -5.21902 
913 1 -2.61863 -4.72288 -5.26044 
3480 2 -1.4557 -5.46629 -4.77291 
3285 2 -1.65702 -4.70226 -4.63639 
786 1 -0.837028 -4.80623 -5.61623 
1050 1 -0.434205 -5.44595 -5.13504 
2826 2 0.903231 -5.81996 -5.42614 
3068 2 0.728488 -5.00196 -5.00994 
2491 1 1.6462 -5.65163 -4.6416 
2623 1 1.87935 -5.214 -5.45921 
1416 1 2.50177 -5.59641 -4.94222 
1575 1 2.60209 -4.86432 -4.63486 
1160 1 3.54227 -5.02305 -4.99186 
1019 1 4.24833 -5.50189 -5.58627 
1211 1 3.40874 -5.82826 -4.88605 
1322 1 4.87516 -4.66911 -5.53895 
2659 1 5.81232 -5.70441 -4.57758 
1364 1 5.66592 -4.42827 -4.53803 
451 1 5.46033 -5.22202 -5.33628 
2828 2 6.84636 -5.34249 -5.01783 
2721 1 -6.51286 -4.16818 -4.99462 
1483 1 -6.84044 -3.96683 -5.80888 
1835 1 -4.58117 -3.25274 -6.08984 
2912 2 -5.39334 -3.92348 -5.54795 
1361 1 -4.80652 -3.93316 -4.69648 
2516 1 -4.36822 -4.1468 -5.71654 
1140 1 -3.91833 -3.95458 -5.09423 
523 1 -3.28639 -3.51896 -4.63737 
484 1 -2.63217 -3.94549 -5.24319 
2262 1 -2.40019 -4.1129 -6.18846 
842 1 -1.60998 -4.40333 -5.87295 
922 1 -1.3848 -3.6541 -5.45021 
2058 1 -0.760861 -3.51393 -4.62224 
2052 1 -0.734307 -4.32474 -4.93085 
2631 1 -0.596672 -3.71925 -5.67442 
3227 2 0.302711 -3.38583 -5.03617 
2768 2 0.5045 -4.25247 -4.91236 
2520 1 1.45911 -4.60293 -5.83417 
840 1 1.43928 -3.63691 -4.57924 
984 1 1.62683 -3.85093 -5.47427 
2933 2 2.73794 -4.7788 -5.8203 
3249 2 2.74687 -3.96486 -5.57604 
1945 1 3.5491 -4.02541 -4.8517 
850 1 2.47169 -3.7186 -4.62149 
1611 1 1.81064 -4.56647 -4.91048 
2539 1 4.03263 -4.49272 -5.45766 
1372 1 4.46621 -3.7949 -5.3079 
1597 1 5.7367 -4.07829 -5.71529 
346 1 5.16785 -3.95379 -5.12583 
3010 2 6.6066 -4.54223 -4.94459 
3080 2 6.69942 -3.67317 -4.85034 
41 1 -6.98411 -2.21362 -5.47762 
92 1 -6.92763 -2.48785 -4.62671 
2612 1 -6.88792 -3.23794 -5.01516 
2890 2 -5.95612 -2.40718 -4.99928 
2737 2 -5.64739 -3.20405 -5.2663 
2661 1 -4.65929 -2.63577 -5.51326 
874 1 -4.6602 -2.06454 -4.79415 
1445 1 -4.33966 -3.1188 -4.96542 
2844 2 -3.59894 -2.38415 -5.76448 
1087 1 -3.67415 -2.66427 -4.58673 
520 1 -2.716 -2.93395 -5.187 
1112 1 -1.61697 -2.52718 -5.45555 
858 1 -0.838167 -2.46873 -4.5845 
527 1 -0.673152 -2.79394 -5.54716 
3430 2 0.293548 -2.67467 -4.79178 
3354 2 0.203427 -1.90165 -4.69193 
2139 1 -0.72222 -1.78227 -5.39314 
566 1 1.60745 -2.94396 -5.25817 
2600 1 1.25735 -2.34297 -5.63495 
400 1 1.4559 -2.33968 -4.5912 
3014 2 2.5449 -3.26513 -5.65298 
2830 2 2.62178 -2.53201 -5.44001 
1215 1 3.49766 -3.10646 -4.77008 
847 1 3.74616 -3.54835 -5.60864 
873 1 3.95361 -2.39156 -5.0048 
2645 1 3.71693 -2.77816 -5.74441 
1841 1 4.60704 -3.0102 -5.09411 
2306 1 5.43613 -3.19545 -5.09612 
1373 1 5.8208 -2.46037 -5.40358 
499 1 5.08971 -2.10152 -4.97331 
1326 1 6.58403 -1.74341 -5.38103 
802 1 6.65604 -2.72527 -5.66971 
3173 2 6.35761 -2.9155 -4.62763 
2974 2 -5.76024 -1.64495 -4.99092 
1883 1 -6.70395 -1.16307 -5.74501 
1548 1 -7.05872 -1.5636 -5.00704 
2993 2 -6.10148 -0.978781 -4.71073 
1781 1 -5.81722 -0.424111 -5.74712 
477 1 -5.08591 -0.749452 -5.01979 
2320 1 -4.82633 -1.53857 -5.60498 
3543 2 -3.72958 -1.67002 -5.50399 
3256 2 -3.84405 -0.847206 -5.37996 
2605 1 -4.01767 -1.81043 -4.3832 
1064 1 -2.5798 -1.3661 -5.56544 
965 1 -2.59723 -2.13722 -5.03067 
159 1 -2.80349 -0.775413 -4.82648 
3200 2 -1.61879 -1.33827 -6.20381 
2465 1 -1.66427 -1.77847 -5.18331 
174 1 -1.9065 -0.701406 -4.81897 
2609 1 -1.08181 -1.0394 -4.93595 
2187 1 0.301457 -1.71204 -5.68384 
1562 1 0.236726 -0.784085 -5.56167 
2298 1 1.15799 -1.6094 -5.20791 
2673 1 1.18751 -1.03536 -5.65741 
3356 2 2.3229 -1.87178 -5.18671 
3557 2 2.37508 -1.18145 -5.18338 
2995 2 4.53546 -1.01986 -5.61527 
85 1 3.41931 -1.61335 -4.88924 
1911 1 4.24882 -1.45684 -4.76993 
388 1 3.39715 -0.925424 -5.38419 
2972 2 4.60023 -1.76705 -5.95088 
2021 1 5.80094 -1.51355 -5.69764 
304 1 5.47784 -1.23788 -5.05619 
2311 1 6.22537 -0.749456 -5.06303 
2037 1 -6.73909 -0.230114 -5.71978 
1224 1 -5.8776 0.377345 -5.5933 
1472 1 -7.12262 0.466578 -5.50735 
3267 2 -6.25676 -0.312281 -4.45367 
1001 1 -4.91254 -0.56251 -6.02471 
1953 1 -5.35712 0.129336 -5.10919 
3144 2 -4.03107 -0.170056 -5.14713 
2861 2 -4.18001 0.61395 -4.97092 
1635 1 -2.94711 -0.399564 -5.64729 
1623 1 -2.84818 0.229097 -5.17184 
1777 1 -2.2454 0.0903385 -4.56406 
2939 2 -1.98618 0.114045 -5.80129 
2589 1 -0.624566 -0.500483 -5.40511 
605 1 -1.334 0.107928 -4.78095 
2647 1 0.121611 0.418959 -5.27629 
3383 2 1.94326 0.189452 -4.77504 
295 1 0.713371 -0.120975 -5.09494 
3449 2 2.07007 -0.545392 -5.02125 
110 1 2.91037 -0.108269 -5.80453 
2135 1 3.08688 0.339273 -5.01664 
3317 2 4.30438 -0.258263 -5.70991 
2848 2 4.11161 0.433338 -5.4271 
2407 1 3.34732 -0.413951 -4.77982 
1362 1 5.22863 0.338037 -5.66896 
2074 1 5.52674 -0.311094 -5.05933 
2231 1 5.55121 -0.494808 -5.99393 
82 1 5.07127 0.382355 -4.83912 
504 1 4.83947 -0.365537 -4.43177 
1369 1 -7.20077 -0.752399 -5.06309 
556 1 6.29089 0.437192 -5.03539 
1927 1 6.94343 0.00242072 -4.67431 
1607 1 -6.26473 1.88626 -5.33868 
668 1 -6.31942 1.00859 -5.57832 
1353 1 -5.40029 0.938179 -4.8868 
1446 1 -5.60877 1.36367 -5.43846 
3062 2 -4.24513 1.46632 -4.96411 
2241 1 -3.00754 1.1137 -5.41104 
330 1 -2.50943 1.25314 -4.5437 
3117 2 -2.18336 1.72864 -5.69031 
2846 2 -1.904 0.92296 -5.78768 
994 1 -0.824023 0.456217 -5.45669 
1517 1 -1.02834 1.97939 -5.30849 
603 1 -1.51709 1.393 -4.86863 
14 1 -0.753425 1.27522 -5.39199 
1993 1 0.0673778 1.4916 -5.19134 
324 1 1.64978 2.07015 -5.82155 
3443 2 1.77974 0.954901 -4.77834 
3241 2 1.61519 1.69869 -4.754 
1998 1 0.986324 0.969802 -5.7082 
2150 1 2.71283 0.743051 -5.97125 
371 1 2.59021 1.81906 -5.68397 
1788 1 2.90266 1.19832 -5.09143 
3364 2 3.93941 1.12678 -5.39507 
3388 2 4.14999 1.75735 -5.0409 
1574 1 5.13623 1.77886 -5.32085 
2087 1 5.52337 1.05997 -5.09433 
1343 1 6.84597 0.755633 -4.40061 
1207 1 7.06063 1.43477 -5.18728 
2276 1 6.19518 1.40949 -4.69824 
1185 1 -7.12717 2.16397 -5.47612 
1238 1 -5.90034 2.65935 -5.23465 
83 1 -6.80612 2.99379 -5.34674 
50 1 -5.33899 2.12721 -5.75558 
2845 2 -4.43112 2.12801 -5.03603 
3456 2 -4.80397 2.81434 -4.97159 
686 1 -3.79607 2.88178 -5.72831 
28 1 -3.33014 2.05411 -5.28691 
2945 2 -2.31537 2.47734 -5.49192 
2977 2 -2.57826 3.32921 -5.41042 
757 1 -1.39524 2.88421 -5.82802 
823 1 -1.02508 2.67824 -4.98381 
177 1 -1.86861 2.84726 -4.60041 
84 1 0.562496 3.02871 -5.24407 
46 1 -0.769954 3.46199 -4.84112 
772 1 0.0156289 2.38192 -4.88802 
1763 1 0.896317 1.8506 -5.44151 
1056 1 1.43567 2.9751 -5.59144 
2542 1 2.33789 2.72781 -5.65874 
441 1 2.53734 2.21292 -4.78891 
1817 1 2.2112 2.97586 -4.88459 
3433 2 3.66345 2.33184 -5.23937 
194 1 5.68813 2.07375 -4.65551 
3298 2 5.82281 2.99764 -5.65154 
23 1 4.70716 2.6474 -5.38501 
2147 1 5.12688 2.61456 -4.57854 
723 1 6.56333 2.27821 -4.85227 
34 1 6.97403 2.84864 -5.9725 
1910 1 -6.23419 3.30126 -4.78702 
2297 1 -6.87085 3.94697 -4.9622 
59 1 -5.38457 3.98338 -5.79814 
2576 1 -5.70829 3.35174 -5.46427 
131 1 -5.96657 4.11672 -5.14118 
2885 2 -4.87168 3.6257 -4.76195 
2077 1 -4.58198 3.41384 -5.99294 
1512 1 -3.87766 3.71889 -5.79279 
912 1 -4.53387 4.20117 -5.60086 
1991 1 -3.86667 4.0507 -4.81505 
2865 2 -2.82712 4.00449 -5.29293 
175 1 -1.50245 3.49265 -5.18405 
448 1 -1.33871 4.40837 -4.92996 
3392 2 -0.534728 4.29892 -5.84927 
1505 1 0.219849 3.82185 -4.90349 
2208 1 -0.55885 4.1836 -4.64378 
1521 1 0.677786 4.35612 -5.48055 
301 1 1.30661 3.67493 -5.27388 
2379 1 2.53996 3.55781 -5.54063 
899 1 2.01135 4.03237 -5.23787 
2814 2 3.4265 4.05548 -4.77628 
2894 2 3.46649 3.11286 -4.97148 
16 1 4.37125 4.63952 -6.01768 
709 1 4.52993 3.45732 -4.9089 
2927 2 5.50101 4.58002 -5.29817 
2917 2 5.58368 3.80001 -5.67702 
2092 1 4.41004 4.41288 -5.03529 
2707 1 6.75997 3.8787 -5.76886 
1331 1 6.80032 3.47533 -5.02547 
2414 1 6.73409 4.41488 -4.99437 
3238 2 -6.71425 4.71151 -5.93263 
3045 2 -6.96079 5.39393 -5.8074 
1899 1 -6.61287 4.63459 -4.57221 
2715 1 -6.01301 4.97189 -5.14864 
1229 1 -5.16521 4.9386 -5.66347 
1391 1 -4.40162 5.17188 -5.12106 
966 1 -3.82497 4.71499 -5.87321 
587 1 -3.89853 5.67068 -5.73514 
1733 1 -3.85417 4.78861 -4.56113 
3458 2 -2.98879 4.75141 -5.1652 
2988 2 -3.07368 5.4735 -4.77038 
2635 1 -1.99948 5.92588 -5.83275 
2603 1 -1.86946 4.68542 -5.75404 
345 1 -1.90793 5.27412 -5.24918 
3018 2 -0.810356 5.84218 -5.36349 
1687 1 0.179417 4.92243 -5.02725 
3207 2 -0.626945 5.15029 -5.74798 
1689 1 0.393289 5.87732 -5.15065 
2669 1 0.881367 5.18943 -5.5653 
2429 1 1.59363 4.78527 -5.03573 
703 1 3.43827 4.85763 -5.83383 
1878 1 2.40532 4.90838 -5.45054 
2048 1 2.14838 5.83798 -5.36308 
696 1 2.86351 5.58196 -5.80417 
1923 1 4.22074 5.31271 -4.94051 
1113 1 3.75427 5.51699 -5.63318 
221 1 4.57993 5.30967 -4.23756 
3257 2 5.35719 5.30447 -5.20903 
806 1 6.40545 4.60068 -6.11704 
213 1 6.41708 5.3171 -5.45831 
1200 1 7.16043 5.14118 -4.72097 
3147 2 -7.00627 6.1 -5.55304 
3330 2 -7.08942 6.8363 -5.13113 
1184 1 -6.19074 6.16002 -4.76139 
698 1 -4.87142 6.95601 -4.84184 
2440 1 -5.64956 5.64663 -5.33232 
29 1 -5.65918 6.83228 -5.13368 
2473 1 -4.8789 6.04566 -5.14423 
2033 1 -4.16721 6.56206 -5.10487 
2835 2 -3.20792 7.13069 -4.60334 
1346 1 -2.5208 7.01949 -5.68322 
1881 1 -2.0775 6.57251 -4.9543 
3265 2 -3.10949 6.26311 -4.81409 
3594 2 -1.03552 -7.00724 -5.19645 
3455 2 -0.917049 6.57187 -5.3916 
1107 1 -0.0386404 6.33821 -4.60044 
1799 1 0.285305 6.33459 -5.81042 
1882 1 2.39801 6.65433 -5.24402 
2978 2 1.38302 7.09988 -5.9057 
811 1 1.7586 -7.13191 -4.81329 
15 1 1.36314 5.6016 -4.8781 
1130 1 1.12407 6.65155 -4.67632 
2469 1 3.14469 7.0385 -5.45448 
1311 1 4.42997 6.28626 -5.67578 
2086 1 4.09764 6.1595 -4.88113 
924 1 3.90595 7.18461 -5.19147 
798 1 3.22297 6.23756 -5.48742 
1871 1 5.45949 6.5801 -6.0893 
2971 2 5.29561 6.05736 -5.19598 
2926 2 5.21209 6.63519 -4.80136 
1667 1 6.34698 6.20887 -5.15653 
929 1 7.15603 6.23552 -4.33145 
610 1 6.03143 7.1176 -5.4761 
2533 1 -6.27964 -7.19529 -4.54433 
655 1 -6.3208 -6.36643 -4.45764 
1153 1 -6.82483 -6.39546 -3.22418 
3228 2 -5.55502 -7.01992 -3.74954 
3375 2 -5.81428 -6.17074 -3.58554 
3413 2 -3.44569 -6.61183 -4.70798 
3562 2 -3.42881 -6.13145 -4.11344 
1551 1 -4.3973 -6.84439 -3.84066 
202 1 -3.71391 -6.88033 -3.35478 
1406 1 -2.44645 -6.00715 -4.66044 
1665 1 -2.61102 -6.87034 -3.57564 
1979 1 -2.49466 -5.86816 -3.74441 
127 1 -1.95334 -7.05845 -4.15766 
1144 1 -1.53079 -6.30346 -3.84994 
1585 1 -0.671013 -6.17624 -3.87067 
2453 1 -0.0302995 -6.31015 -4.64755 
1089 1 -0.146271 -7.11885 -4.49877 
3236 2 0.545922 -6.77456 -3.52301 
486 1 0.779113 -6.66709 -4.60385 
2238 1 1.4976 -6.35258 -4.37902 
2525 1 1.49388 -6.09278 -3.51751 
2918 2 2.7174 -6.69674 -4.21234 
3379 2 2.568 -5.9286 -3.96213 
189 1 3.78488 -6.74716 -4.65272 
2305 1 3.51927 -6.59572 -3.54965 
538 1 4.38903 -6.45739 -3.51266 
1000 1 5.17724 -6.01667 -3.59506 
1863 1 5.64035 7.088 -3.85223 
2571 1 -7.05269 -6.50753 -4.00879 
72 1 5.72803 -6.54915 -4.10967 
316 1 -6.83909 -5.4907 -4.07431 
844 1 -7.14317 -5.37622 -3.1949 
2521 1 -6.94442 -4.64301 -4.26576 
2896 2 -5.7978 -5.37586 -3.4235 
683 1 -4.58408 -5.64546 -4.01953 
2323 1 -5.50535 -5.91446 -4.72678 
1542 1 -5.89145 -4.42129 -4.46467 
2388 1 -5.06482 -4.88707 -4.33004 
595 1 -4.54077 -5.11085 -3.20168 
3536 2 -3.55058 -5.38121 -4.17743 
2176 1 -2.68588 -5.14252 -4.34852 
228 1 -2.33516 -5.01232 -3.60386 
2038 1 -1.52727 -5.38633 -3.6302 
1086 1 -1.3756 -4.57072 -3.26427 
1931 1 -0.258554 -4.72712 -4.40255 
1127 1 -0.62339 -5.33952 -3.92519 
1422 1 0.128888 -5.57383 -4.33008 
1538 1 1.58308 -4.98765 -4.11466 
1289 1 0.943759 -5.82137 -4.07971 
2105 1 1.18733 -5.11034 -3.23113 
3230 2 2.58556 -5.26767 -3.61047 
112 1 3.81952 -5.99492 -4.08046 
2145 1 3.46903 -4.99296 -4.08626 
3244 2 4.59973 -4.68379 -4.37912 
834 1 4.13688 -5.61621 -3.31308 
2722 1 3.72889 -4.95496 -3.186 
3340 2 4.6896 -5.45891 -4.50418 
997 1 5.59797 -5.19662 -3.90215 
1741 1 4.66214 -4.79156 -3.24404 
1013 1 6.67488 -5.90354 -3.9312 
1994 1 6.4305 -5.21967 -3.92868 
1664 1 6.94259 -4.74515 -3.52186 
1354 1 7.15718 -3.82077 -4.01129 
2375 1 -6.19961 -3.47667 -4.47161 
3286 2 -6.11653 -4.63306 -3.45054 
550 1 -5.32349 -3.79776 -3.96035 
1251 1 -4.95097 -4.6078 -3.66562 
1553 1 -5.32297 -3.06533 -3.32714 
3376 2 -3.804 -4.67125 -3.87761 
3083 2 -4.00801 -3.88294 -3.93578 
386 1 -2.63053 -4.2826 -3.80184 
977 1 -3.08852 -4.30677 -4.59413 
2044 1 -1.85796 -3.76081 -3.3144 
3198 2 -1.87652 -4.01173 -4.52415 
1380 1 -1.05459 -3.67907 -3.7257 
1846 1 -0.737948 -4.42976 -3.81874 
1491 1 -0.0466557 -3.89244 -3.96165 
1028 1 0.523821 -4.93075 -3.88337 
2540 1 0.516033 -3.42895 -3.6212 
247 1 0.983121 -4.1587 -3.9653 
1415 1 3.14056 -4.2255 -4.20369 
3320 2 1.97384 -3.75418 -3.4558 
3015 2 2.32427 -4.50276 -3.54733 
2857 2 4.43174 -3.85023 -4.16572 
169 1 3.52734 -4.11898 -3.45268 
1595 1 5.52669 -3.62171 -4.33326 
1428 1 5.38206 -4.4343 -3.58715 
2507 1 6.26206 -4.09827 -3.7475 
56 1 -6.70535 -2.96985 -4.03433 
1444 1 6.99295 -2.57419 -3.7239 
2351 1 -6.29273 -1.85356 -3.83033 
1182 1 -4.99579 -2.88135 -4.39364 
1392 1 -5.72847 -2.66163 -3.88722 
1316 1 -5.05556 -1.9398 -3.98239 
1031 1 -5.19701 -2.16579 -3.0283 
3229 2 -4.13519 -3.19022 -3.64422 
3447 2 -4.20618 -2.38736 -3.44774 
1285 1 -2.79136 -3.33275 -3.89121 
2766 2 -1.84766 -2.21414 -4.21281 
2302 1 -2.94543 -2.46235 -4.14416 
1431 1 -3.04774 -2.47255 -3.25856 
2916 2 -1.7546 -3.0307 -4.56586 
358 1 -1.09114 -2.85281 -3.54503 
2263 1 0.37871 -2.60091 -3.63964 
1195 1 -0.421049 -2.98199 -3.91045 
692 1 1.13451 -2.99153 -4.0634 
2901 2 1.80411 -2.8123 -3.32655 
1830 1 3.23833 -2.37601 -4.33484 
2558 1 2.39864 -2.78253 -4.24919 
27 1 3.09263 -3.26412 -3.96419 
1653 1 3.05752 -2.76348 -3.39242 
3353 2 4.28395 -3.02941 -3.95784 
3134 2 4.06721 -2.25813 -3.73625 
2211 1 5.31077 -2.84742 -4.31676 
2646 1 5.5716 -2.75229 -3.49926 
2858 2 6.28141 -2.05859 -4.40919 
1851 1 6.12683 -3.31378 -3.55978 
1672 1 -7.01376 -1.69151 -4.16016 
2132 1 -6.63115 -0.999231 -3.49975 
2642 1 7.07019 -0.857409 -4.16138 
318 1 -4.56141 -1.09674 -4.4811 
86 1 -5.52344 -1.39168 -3.84131 
1790 1 -3.20068 -1.56535 -3.77688 
1151 1 -3.67169 -0.891927 -4.19202 
2480 1 -3.20219 -1.59702 -4.62831 
2748 2 -2.16595 -1.32267 -3.97945 
2789 2 -2.47645 -0.738969 -3.58437 
1441 1 -0.869726 -1.64873 -4.30666 
1266 1 -0.615893 -0.907819 -3.48777 
2228 1 -1.13314 -0.83263 -4.12971 
3585 2 0.054756 -1.10813 -4.50671 
2400 1 -0.479546 -2.05098 -3.5504 
111 1 0.182695 -1.64243 -3.4679 
749 1 0.83587 -1.98451 -3.87985 
1239 1 1.04514 -1.12895 -3.64381 
2411 1 1.10663 -0.832532 -4.47935 
876 1 2.15858 -0.985486 -3.93045 
167 1 1.52232 -1.51774 -4.3448 
656 1 2.39556 -1.844 -4.06501 
1275 1 3.06906 -1.11208 -4.13765 
1085 1 2.7434 -1.0881 -3.19139 
2914 2 3.98932 -1.43748 -3.52271 
3483 2 3.83433 -0.701601 -3.3395 
130 1 4.00405 -0.578416 -4.44642 
960 1 5.26198 -1.9602 -4.16631 
1340 1 4.98388 -1.29847 -4.45274 
2657 1 6.94306 -1.18014 -3.26371 
1294 1 7.03374 -1.97402 -3.09178 
3116 2 6.23435 -1.39443 -4.13052 
2856 2 6.02465 -0.620022 -4.0256 
2028 1 -6.73549 -0.177408 -3.38951 
3186 2 -6.37524 0.366312 -4.60057 
1568 1 -5.89649 -0.539574 -3.46573 
1791 1 -5.14269 -0.551436 -4.01738 
2436 1 -4.99165 0.189967 -4.35193 
697 1 -5.62627 0.182314 -3.7658 
1671 1 -3.08364 -0.152326 -4.39929 
2363 1 -4.32582 -0.222214 -4.22161 
1809 1 -3.71017 0.317344 -3.64434 
3490 2 -2.49721 -0.0365221 -3.42278 
1812 1 -1.39552 -0.109256 -3.84506 
2406 1 -1.30521 0.683316 -3.4904 
3500 2 -0.0914797 -0.305377 -4.34087 
3555 2 -0.278542 0.427104 -4.29744 
2020 1 0.620277 -0.0457031 -3.35809 
904 1 0.986916 0.0194721 -4.12441 
75 1 1.77844 -0.137328 -3.82492 
2460 1 2.80083 -0.186814 -4.12013 
2084 1 2.73937 0.626221 -4.23916 
1325 1 4.49659 0.494879 -4.25463 
665 1 3.69859 0.387399 -4.35497 
3305 2 3.83095 0.120602 -3.29656 
2902 2 5.72435 0.101245 -3.99476 
2819 2 5.7921 0.83522 -3.88102 
410 1 4.86914 -0.181188 -3.50355 
49 1 7.11548 -0.0492367 -3.93584 
3263 2 -6.48435 1.12521 -4.41957 
3260 2 -6.75445 1.87744 -4.30185 
1169 1 -5.78401 1.28321 -3.66417 
1725 1 -5.1404 0.865262 -4.09427 
561 1 -5.55211 1.84295 -4.63761 
2508 1 -3.47292 1.57301 -4.32375 
594 1 -3.23438 0.706431 -4.27467 
731 1 -4.85449 1.67109 -3.87454 
2448 1 -4.23063 0.818963 -3.96965 
1214 1 -4.01608 1.59489 -3.47355 
3588 2 -2.5698 0.83179 -3.45557 
883 1 -1.6708 0.76352 -4.35478 
1894 1 -1.72714 1.40106 -3.6325 
1367 1 -1.85285 1.99876 -4.26023 
1432 1 0.45473 0.861767 -3.43936 
2950 2 -0.419997 1.06356 -4.09363 
3196 2 -0.747901 1.82913 -4.04527 
2713 1 0.751089 0.669311 -4.75799 
892 1 0.54058 1.63024 -4.2226 
414 1 1.1576 0.949356 -3.81907 
2650 1 1.4672 1.74937 -3.48482 
1524 1 3.04882 1.50782 -4.38991 
2575 1 2.45772 1.55911 -3.83259 
1176 1 2.07182 0.760323 -3.56773 
423 1 4.55044 0.993285 -3.58792 
377 1 3.79411 1.22717 -4.19099 
891 1 4.39561 1.90019 -3.27853 
2380 1 4.99326 1.2617 -4.4817 
3209 2 5.56923 1.55385 -3.6128 
2584 1 6.67794 1.84541 -3.79584 
2010 1 7.01983 1.12188 -3.55999 
3033 2 -6.86232 2.567 -4.30152 
1060 1 -5.92258 2.22727 -3.49407 
443 1 -5.70763 2.70637 -4.3155 
2551 1 -4.88778 2.42111 -3.77427 
803 1 -3.65577 3.05009 -4.88714 
2395 1 -3.88823 2.46147 -4.08708 
1148 1 -4.14476 3.29727 -3.99713 
286 1 -2.79272 2.03423 -4.61433 
2490 1 -2.74779 2.75096 -4.39948 
1329 1 -1.86399 2.54953 -3.52758 
1638 1 -2.13308 3.46148 -3.65871 
2860 2 -0.679933 2.55837 -3.81713 
1486 1 0.0462543 3.06758 -4.48464 
1375 1 0.401198 2.49309 -3.91881 
47 1 0.411011 3.35959 -3.3278 
3063 2 1.35976 2.37339 -4.49369 
3479 2 1.25963 3.1597 -4.37135 
2313 1 0.947593 2.56116 -3.20747 
1466 1 2.2474 2.38426 -3.8668 