LAMMPS data file via write_data, version 11 Aug 2017, timestep = 3000000

3594 atoms
2 atom types

-7.1515986700731080e+00 7.1515986700731080e+00 xlo xhi
-7.1515986700731080e+00 7.1515986700731080e+00 ylo yhi
-7.1515986700731080e+00 7.1515986700731080e+00 zlo zhi

Masses

1 1
2 1

Atoms # atomic

803 1 -5.9692009191726907e+00 -6.5136974401079204e+00 -6.3222350351843009e+00 0 0 -2
2727 1 -6.9130640971908415e+00 -6.1487973017964874e+00 -6.2649853201301040e+00 -1 0 0
2521 1 -5.6979184776307426e+00 -5.6484491801942154e+00 -6.3972031840688350e+00 -1 7 4
1733 1 -6.4143604788422470e+00 -5.3509749977245562e+00 -5.9466980580156523e+00 -2 2 1
2029 1 -6.0399719837882113e+00 -6.0939052377275109e+00 -5.5032787059143651e+00 1 2 4
1481 1 -6.4638809363420648e+00 -3.7438592408692766e+00 -4.8002282088045831e+00 -1 -1 -8
3520 2 -4.8564056104373226e+00 -6.6639090495669624e+00 -5.8607794914922531e+00 3 -1 1
3416 2 -4.8456124114643702e+00 -5.9624674858802376e+00 -5.6527038356216082e+00 3 0 1
358 1 -4.5599091591342713e+00 -6.7823058267673337e+00 -7.0086770684225428e+00 -3 1 3
477 1 -4.6514162287742344e+00 -5.5267497177291007e+00 -6.6712930047328696e+00 4 -2 6
196 1 -5.2213807243521106e+00 -6.1675306421757421e+00 -6.8878700889335596e+00 -5 2 3
2114 1 -4.0514653408192389e+00 -6.1565553563728379e+00 -6.7825431670412861e+00 -3 -4 -6
897 1 -2.8319608440382629e+00 -6.8838359641794016e+00 -5.3699816646675496e+00 1 10 5
1004 1 -3.6014738416018175e+00 -6.7283258187344348e+00 -6.1815208276533875e+00 1 4 1
1671 1 -3.9057730641658650e+00 -5.6464254428873550e+00 -6.0255118708969988e+00 1 -1 2
534 1 -5.7936422644494190e-01 -5.2540662322622156e+00 -3.7700667128020222e+00 0 5 3
3268 2 -2.8521510514742063e+00 -5.9050471895560683e+00 -6.2887792919776224e+00 4 1 0
3454 2 -2.5902738087103669e+00 -6.5941977909949712e+00 -6.5972966926238392e+00 4 0 2
1107 1 -1.5150762989738373e+00 -6.2018398508477102e+00 -6.6972578253606905e+00 1 3 0
1905 1 -1.9377760705164784e+00 -6.3832059732438164e+00 -5.6326807604265818e+00 0 3 -3
20 1 -1.4426350166996240e+00 -5.7293880085776685e+00 -5.9655277809585847e+00 0 -2 0
1088 1 -7.1664678956069228e-01 -6.2763611047460000e+00 -5.9102797976354751e+00 5 6 1
3368 2 -5.1847423507884471e-01 -5.8700505614247627e+00 -6.9552107922917443e+00 1 1 -2
1652 1 -4.6143700411423261e-01 -5.5414188998598011e+00 -5.5349394527006384e+00 1 5 1
2240 1 -1.3684963151952791e+00 -6.9619476317644784e+00 -6.1820942946561539e+00 4 6 1
172 1 -3.8651336302001797e+00 -3.6727177856699922e+00 -4.7835290989259054e+00 3 -3 3
3366 2 -6.5963439132750663e+00 -5.4267885094006685e+00 -7.0672297864354130e+00 0 0 2
3495 2 -6.7965756702911744e+00 -4.7165162484893735e+00 -7.0152106765129849e+00 2 2 4
3029 2 -7.0231529882707155e+00 -4.0315119839709848e+00 -6.7274841200997617e+00 0 3 1
1406 1 -6.0707428615327181e+00 -4.4985133309637799e+00 -6.2170493025894791e+00 1 -2 -1
601 1 -5.5252575760847380e+00 -3.8668060886823730e+00 -6.5234527429993499e+00 0 0 -1
2269 1 -6.3234519694702005e+00 -5.0268696750911275e+00 -5.0893550516411086e+00 0 4 1
2641 1 -5.4911220507106808e+00 -4.9273734411881867e+00 -6.8958860250313005e+00 -6 4 2
2042 1 -4.8593699200645073e+00 -4.6294158465404118e+00 -6.4742224746591805e+00 -1 9 1
1918 1 -3.9777644548322892e+00 -4.9177114534664730e+00 -6.2921254800494832e+00 1 -5 -1
2326 1 -1.3695242376542804e+00 -6.5798785084736124e+00 -3.7374665282463257e+00 -3 1 -1
2912 2 -5.1753958718161179e+00 -5.2929712953360504e+00 -5.4746030671528398e+00 2 -1 2
2737 2 -5.3720824551022526e+00 -3.8405522677929587e+00 -5.2383032749049727e+00 1 1 0
1784 1 -4.2482668796920287e+00 -4.0961453610369487e+00 -5.5525397639242522e+00 1 1 -1
3574 2 -3.0706210895681485e+00 -4.3619673036944508e+00 -6.0125816284475739e+00 -1 0 1
1001 1 -3.9641923715020373e+00 -4.2645510250796512e+00 -6.7239563505877893e+00 2 4 2
2944 2 -2.8349592145862719e+00 -5.0869913261020603e+00 -6.0907297700402268e+00 -1 1 2
174 1 -3.6611382109965378e+00 -5.3792384612256292e+00 -7.0364164536533380e+00 0 -2 -4
2388 1 -4.1479816979659558e+00 -4.9340084970753111e+00 -5.2970137359940637e+00 -1 -1 4
83 1 -2.8243939194799772e+00 -3.9711307719409499e+00 -7.0552563575309026e+00 -3 4 1
1979 1 -1.8911821220269607e+00 -4.5837185145350272e+00 -5.6056335160228032e+00 -3 -2 4
2139 1 -1.8155204357343440e+00 -5.0688172326091827e+00 -6.3379841935274372e+00 3 -4 1
911 1 -2.0623056205340804e+00 -3.9706997456068875e+00 -6.2355738580080731e+00 0 -3 4
1255 1 -5.9378479354877474e+00 -7.1099238918284060e+00 -5.5984658311819429e+00 -4 0 1
3487 2 -7.0657092183649848e+00 -7.1110868144806094e+00 -5.3779775882684042e+00 -2 2 2
1235 1 -1.2730359635186259e+00 -3.9472495551484577e+00 -5.5062274591086524e+00 4 3 6
527 1 -1.0965645227873395e+00 -4.9832910868635807e+00 -5.6368126710748179e+00 1 6 1
3019 2 -6.7288451032252539e-01 -5.1307398673940847e+00 -6.8113805013626401e+00 -1 3 -1
3484 2 -8.4241949616167311e-01 -4.4201244483702098e+00 -6.5589125188521828e+00 2 3 -1
2627 1 -2.1268635806365959e+00 -4.5067141734138190e+00 -7.0335051501444417e+00 -6 1 7
1530 1 -6.9033984592537987e+00 -7.0377476612712906e+00 -4.0781854645863911e+00 4 -1 -2
2162 1 -6.2858719781373367e+00 -6.3928822384165809e+00 -4.3517854745932807e+00 -4 2 7
1312 1 -5.9988180153126676e+00 -5.6241341656576509e+00 -4.5898133336013585e+00 2 8 3
2828 2 -7.0826538591888637e+00 -6.3153565097837738e+00 -5.2078609901929038e+00 0 4 -1
2089 1 -6.7694395000644700e+00 -5.8899422713696943e+00 -3.7274857342267294e+00 4 4 -1
728 1 -2.1850392666610423e+00 -5.1504716753636908e+00 -3.6397672938022456e+00 4 5 4
833 1 -5.6845133218447685e+00 -6.6311047739736040e+00 -4.9018567565409494e+00 -4 4 0
361 1 -4.5389567605947505e+00 -5.8615199023140994e+00 -3.7960894009647648e+00 3 1 0
1994 1 -5.1825280965494471e+00 -5.9655020446341016e+00 -4.5306616722453210e+00 0 4 -1
2466 1 -4.6441888093327472e+00 -6.6996790857920336e+00 -4.6919469899238386e+00 0 -2 -1
2332 1 -3.7747213822772179e+00 -6.2440289130080107e+00 -5.3996755334083826e+00 -1 0 -2
1730 1 -4.3747273564601290e+00 -6.7295651280094182e+00 -3.9243498116179909e+00 -1 0 -3
2612 1 -4.3169772543424756e+00 -5.8300709199372696e+00 -4.7602593241423063e+00 0 3 1
3413 2 -3.4187080400026337e+00 -5.8875638818279672e+00 -4.0139830364560751e+00 -2 1 0
2835 2 -3.3637693958340869e+00 -6.6653830455480838e+00 -4.3020399365542454e+00 0 0 -1
2248 1 -3.4131006998784823e+00 -5.4217575866620775e+00 -5.0936559225463931e+00 1 2 -3
3537 2 -3.5844496727742126e-01 -6.6408209715800828e+00 -7.0967421087557172e+00 -4 -1 1
448 1 -2.0748464360468972e+00 -5.5031902748418338e+00 -5.3437143767278776e+00 -2 1 1
1344 1 -2.2087747005902507e+00 -6.3267801763935676e+00 -3.7977616356367556e+00 1 2 0
995 1 -2.7810913686011283e+00 -6.0774660946139658e+00 -5.1161007084382497e+00 1 0 -6
356 1 -2.2492356268187041e+00 -6.5547480026915501e+00 -4.6679317245414431e+00 3 -4 -3
1470 1 -2.3295073302925440e+00 -5.6471224017966906e+00 -4.3264408715987086e+00 0 -1 -3
2808 2 -1.0669887872024129e+00 -3.7007342663261289e+00 -6.6508523872087242e+00 -2 -4 1
3018 2 -1.0934574469153384e+00 -6.5600010487595659e+00 -4.8619743342015269e+00 -1 3 -2
3594 2 -1.2213624946946782e+00 -5.8731156346727813e+00 -4.6972720468582203e+00 -1 -1 0
1677 1 -5.5646377725543061e-01 -6.3118790525378232e+00 -3.9375397996297306e+00 -3 -1 0
1954 1 -6.6017944196297762e+00 -4.2660734423732762e+00 -5.4444524442536588e+00 1 2 -4
1210 1 -4.4538759681282070e-01 -4.2522063554647307e+00 -5.4369208913841600e+00 0 -1 -1
2350 1 -6.7419365399847377e+00 -4.1798383234156109e+00 -3.8527387718934021e+00 1 -2 1
964 1 -6.6000427819901990e+00 -5.1331783349041400e+00 -4.0640188987605148e+00 -2 -2 -3
1182 1 -6.1106657196983960e+00 -4.4212036636836203e+00 -4.4269679312900800e+00 2 5 -6
2981 2 -3.3098440307409711e+00 -3.6255278117019305e+00 -5.9181240249140705e+00 2 -2 1
138 1 -4.4690158026549875e+00 -5.0753457015936245e+00 -4.5270712256691921e+00 1 5 -3
606 1 -3.8059801455300017e+00 -7.1074263456418834e+00 -6.9194684926361658e+00 0 -7 2
1144 1 -5.3209477434969115e+00 -4.9180143964155434e+00 -4.3033374944878728e+00 3 0 3
3325 2 -5.2927084217328737e+00 -4.5550532727423212e+00 -5.4514306861912214e+00 2 1 0
1673 1 -5.1530815866766666e+00 -4.1754879068755848e+00 -4.1067834307008750e+00 6 1 0
715 1 -4.4692319128373761e+00 -4.2576429467769845e+00 -4.5998140939264935e+00 -1 -7 3
1702 1 -1.9016858479773795e+00 -5.5319028572628151e+00 -7.0511112640458267e+00 -1 4 -3
3536 2 -3.5371778444760347e+00 -5.1533800179644338e+00 -3.9394934532052832e+00 0 2 1
3562 2 -3.8429852719053335e+00 -4.5287424222801533e+00 -3.7834786598101511e+00 -2 1 0
26 1 -3.4180378845308015e+00 -4.4010068315294664e+00 -4.9317415606144239e+00 -2 2 3
104 1 -2.9931523536969298e+00 -3.8113264928093158e+00 -4.4058499455908908e+00 0 1 3
3285 2 -1.7870011604863052e+00 -3.7643352022265097e+00 -4.2319789270580150e+00 0 1 1
3322 2 -1.3852958496644305e+00 -5.1913864607262230e+00 -4.5505064388316629e+00 2 0 1
1643 1 -2.4346890559845180e+00 -4.0710513945698370e+00 -5.1262718938054608e+00 1 4 1
1665 1 -2.5921716603259863e+00 -4.9095815942502057e+00 -4.9214245708840894e+00 -1 -2 -1
3480 2 -1.4948546098978834e+00 -4.4779536683253989e+00 -4.4073634467083149e+00 0 -2 0
458 1 -2.6350370385845689e+00 -4.6539547715521223e+00 -4.1334591480967262e+00 2 -5 -3
1836 1 -3.1379843382259942e-01 -4.9708849735983511e+00 -4.8597222589722762e+00 4 4 3
954 1 -2.0903264420763978e-01 -4.4913061380174568e+00 -4.1438874161876011e+00 -3 2 0
842 1 -5.0156037055000091e-01 -3.8013720610025978e+00 -4.6729482277418768e+00 -1 1 2
1468 1 -5.1821937089965076e-02 -6.1062374793700451e+00 -4.9967663525415764e+00 -1 3 1
2200 1 -3.9048629058294861e+00 -7.1042354578967792e+00 -5.1565788656790739e+00 3 -1 1
582 1 -4.5132752631054220e+00 -3.7758399034113075e+00 -6.2466596458902206e+00 1 0 0
3545 2 -5.4552619150231862e+00 -6.8735643036749909e+00 -3.6997932208272450e+00 -1 0 1
3083 2 -3.8200587768266048e+00 -3.8564040120468106e+00 -3.5873209302639890e+00 1 0 1
1528 1 -6.1273635066153780e+00 -5.9588610389630992e+00 -2.3317154048217992e+00 1 2 -6
1013 1 -6.5527566622961446e+00 -6.5036355264494610e+00 -3.1554976985423062e+00 2 3 3
2106 1 -6.8710202444753330e+00 -6.2658328706358537e+00 -2.0871635437075495e+00 0 -1 0
2288 1 -6.8557273500379967e+00 -5.5804973935910409e+00 -2.9326802666950362e+00 -2 4 -2
2076 1 -6.8772659120774016e-02 -5.6207351501695069e+00 -2.0341946970071207e+00 2 2 0
2455 1 -5.8203269321054520e+00 -6.8376103278885996e+00 -2.4462978474323167e+00 1 0 -3
772 1 -4.7150711448690625e+00 -6.3282631706705015e+00 -2.7371986360070260e+00 -1 6 0
987 1 -5.2470939689722975e+00 -6.0148370111099698e+00 -2.1714612270170939e+00 -3 2 -1
2672 1 -4.2013992275157301e+00 -5.7064684523158959e+00 -3.0668687331538660e+00 -1 3 -4
3469 2 -5.5302581668388866e+00 -6.1358620277345377e+00 -3.4555089766065046e+00 2 1 0
2569 1 -1.4264181389350297e+00 -5.6635650517997513e+00 -3.4343213513319184e+00 -1 -2 3
1658 1 -4.8918629302925947e+00 -5.2006037004738648e+00 -2.5449401585616496e+00 -1 0 0
1855 1 -4.8849606041956664e+00 -6.0248420015183743e+00 -1.1504723105606374e+00 2 3 -1
347 1 -3.6527902507604497e+00 -6.3748940309223983e+00 -3.0247887688343003e+00 5 4 3
2805 2 -3.9783030124798162e+00 -6.8697669477856147e+00 -1.9341497252124755e+00 1 -1 -2
864 1 -2.8151717537669647e+00 -6.5902445723595919e+00 -3.0190033033983097e+00 0 -2 4
3141 2 -3.9603160970878144e+00 -6.1047240692837441e+00 -1.9422010000832985e+00 0 1 2
2119 1 -3.2971062818787695e+00 -5.4712731411934357e+00 -2.6730102433569840e+00 3 -4 2
1304 1 -2.9140985445179997e+00 -6.1630313656694975e+00 -2.2029774885886431e+00 -2 0 -2
123 1 -4.2494606503180492e+00 -6.9740491672840266e+00 -3.1425122986012228e+00 -3 -4 2
3001 2 -1.8166483795577779e+00 -5.8934002698294607e+00 -2.5085199968631562e+00 0 1 4
2785 2 -1.6809096570026192e+00 -6.6579653526220337e+00 -2.5298037656706471e+00 -2 1 -2
1691 1 -2.6885534169827636e+00 -5.7286344066477453e+00 -3.1624740851559507e+00 4 -4 -5
202 1 -1.8956671917654155e-01 -4.1492237771734617e+00 -1.6605803974077782e+00 2 -5 0
2544 1 -2.4791244316969170e+00 -6.6737644239565759e+00 -1.7119001912816598e+00 -4 1 2
2374 1 -3.6314481580490585e+00 -7.0775595708663044e+00 -6.2739529004647565e-01 3 1 -1
635 1 -1.2978969240264702e+00 -3.6330718278683092e+00 -2.9979355858799845e+00 2 2 1
1127 1 -6.2462193112527142e-01 -6.3201640383158013e+00 -2.1657348778899053e+00 -2 2 3
1728 1 -7.0608149166209344e-01 -5.9817404220572703e+00 -3.1775294303027328e+00 3 -4 -2
2486 1 -1.0958116994707412e+00 -5.6152628448042989e+00 -1.6496261283457878e+00 -1 -1 -3
1650 1 -7.7830998330038881e-01 -5.3709720913834929e+00 -2.5812007210146213e+00 1 -3 -1
2524 1 -2.6528845302733215e+00 -3.8044616765078816e+00 -3.5320628206706353e+00 1 3 0
1164 1 -5.9583365464349809e+00 -5.1216778318502030e+00 -2.0934515850960294e+00 -2 0 -3
1187 1 -6.6856566433352693e+00 -4.7119928729620302e+00 -2.3704419741519471e+00 4 1 1
3375 2 -5.9424907127986391e+00 -4.6303189208316358e+00 -3.1617020303392946e+00 1 1 3
2896 2 -5.9750938572714105e+00 -3.7889401609278512e+00 -2.9344053964057313e+00 0 2 0
1808 1 -6.4042482173723743e+00 -3.9632542688002177e+00 -1.9144211218782514e+00 0 -2 1
3228 2 -5.7197936069708195e+00 -5.4153621798513107e+00 -3.2510209728459585e+00 -1 -1 -2
796 1 -1.7371589497189861e+00 -3.5979714653364399e+00 -1.7079088034630097e-02 1 -1 -2
1846 1 -1.4284587447680082e+00 -4.6862733230383018e+00 -3.4542861264158198e-01 -3 0 1
2362 1 -5.0986726974104686e+00 -4.4531503332175273e+00 -2.3678264325201068e+00 2 -3 -1
647 1 -4.8352863439911422e+00 -4.1758889801739922e+00 -3.3209508095430738e+00 1 3 5
350 1 -4.2897902840320548e+00 -4.0137161334067395e+00 -2.5788045844296485e+00 2 -3 0
517 1 -7.1022651387928430e+00 -4.9363524590272920e+00 -3.3992410383503175e+00 3 4 2
2033 1 -3.2489645566019369e+00 -4.2643212861725823e+00 -2.5629307984873169e+00 -2 0 2
1885 1 -3.9597827213089714e+00 -4.8382166284766139e+00 -2.6701115678035601e+00 0 3 4
531 1 -3.0585250692034274e+00 -4.9002983534941569e+00 -1.8981148898483369e+00 -3 6 0
492 1 -7.0668261055923116e+00 -5.3603669630243616e+00 -2.0144422436417919e+00 -1 6 3
1604 1 -1.1937744027169588e+00 -4.3323575882277261e+00 -1.4028061428237750e+00 -2 -3 -4
2309 1 -2.7840133449225730e+00 -4.5998861167854432e+00 -3.1183065168210842e+00 3 -5 0
1741 1 -7.0747676373238981e+00 -6.6813378557539949e+00 -7.5721792491671192e-01 0 4 -2
3270 2 -1.9278329552221196e+00 -5.0737294662692580e+00 -2.2843324930539186e+00 -1 1 -1
3343 2 -2.1048973889234963e+00 -4.3158805366156692e+00 -2.1553286407090360e+00 1 -5 -2
37 1 -1.9900372822864281e+00 -4.2987140263297121e+00 -3.2697772792861870e+00 1 2 1
193 1 -2.9802685562419828e+00 -4.4755607020639072e+00 -1.0566301625465533e+00 -4 -3 1
2955 2 -2.4011990707731901e-01 -4.5436531257254380e+00 -6.8892196241483195e-01 2 -1 -2
2237 1 -1.0585787153454698e+00 -3.6832634592603744e+00 -1.8910705093495741e+00 -2 -2 6
1028 1 -1.1355137612384718e+00 -4.8113671409264835e+00 -3.1811353942522929e+00 5 0 3
666 1 -1.0081546852838068e+00 -4.3890318170973712e+00 -2.4652336040280174e+00 0 2 -3
1620 1 -6.7041445430963709e-01 -4.8489788824346167e+00 -1.8093454703528193e+00 0 0 0
2138 1 -1.2986128606003300e+00 -5.6019420399865538e+00 -6.9978510369967495e-02 -3 0 1
2496 1 -4.7300220839381524e+00 -5.0772352995818109e+00 -3.5358837653864241e+00 4 2 1
963 1 -6.4317474804493306e+00 -7.0209301238894106e+00 -1.6730474624902758e-01 1 2 1
3193 2 -6.0295737507075797e+00 -6.8724583873086598e+00 -1.1623038987575649e+00 2 1 0
2361 1 -3.6063098338745285e+00 -4.0321010022286679e+00 -6.8314945379031045e-01 -1 4 -2
3053 2 -6.1246455155325945e+00 -6.1055390239734448e+00 -1.2118829260278439e+00 1 -1 -4
3400 2 -6.3534717947020187e+00 -5.3546141441604025e+00 -1.0506365135606179e+00 0 0 2
1680 1 -1.9206940501400789e+00 -4.0449237984413600e+00 -8.5927636942917829e-01 3 5 -1
2607 1 -5.6251110295671003e+00 -5.0224714989063983e+00 -2.2793463536822678e-01 -3 -1 1
2422 1 -5.1919939420544292e+00 -6.7825232764513759e+00 -5.8980891584595607e-01 -1 1 0
1153 1 -3.9301431154084971e+00 -5.9466203126201806e+00 -6.1831264105004458e-01 -1 -3 2
2533 1 -5.3753343155258486e+00 -5.9393716686293541e+00 -4.3624371630597114e-01 1 -4 1
1096 1 -5.2502202386451167e+00 -5.3870663715157026e+00 -1.6080121317005300e+00 5 -2 -5
200 1 -5.0850677226775725e+00 -6.6861190398270498e+00 -1.6807480151876160e+00 0 -1 -1
566 1 -2.3152309016330923e+00 -4.8974237480108567e+00 -1.1628569579925232e+00 4 1 -2
1901 1 -4.4013569771794767e+00 -6.6766386336028862e+00 -8.6027195692409109e-01 4 -1 5
278 1 -3.1956949702839093e+00 -6.6043386753100002e+00 -1.1964344055105105e+00 -4 -5 0
1149 1 -3.2372510829237831e+00 -5.7808953321715517e+00 -1.0134025465191661e+00 1 -5 -2
2713 1 -2.6487008486603072e+00 -5.5964174828631457e+00 -1.5764880475817513e+00 -1 1 0
3109 2 -2.4799819120079141e+00 -6.3370572682379134e+00 -3.1784916691186460e-01 -2 -4 3
464 1 -1.9636452618368612e+00 -5.9754679395297865e+00 -1.3013014171496655e+00 2 -3 -2
2806 2 -2.5590962808284665e+00 -5.5495748329761634e+00 -2.0821667756448647e-01 0 1 0
2803 2 -2.3198457784337139e+00 -7.1152178544356923e+00 -4.3018689944554467e-01 1 -1 0
180 1 -6.5525458830658501e-01 -6.8896428690122153e+00 -3.0821267919800519e+00 0 -1 0
57 1 -1.5575323728402184e+00 -5.2408898664064383e+00 -1.0302364883734363e+00 -1 3 0
1492 1 -1.3837586414006813e+00 -6.2983665863006308e+00 -6.0812816715540929e-01 2 1 -4
1260 1 -1.1385630342891178e+00 -6.5892720483271372e+00 -1.4296072170963594e+00 -1 6 0
1342 1 -6.7289992851290661e+00 -6.0959939933060348e+00 -1.3455700551671423e-01 -5 0 4
2811 2 -2.0787551424058925e-01 -6.0924224821403721e+00 -9.3202670619511263e-01 0 -2 0
3031 2 -2.9136311897685374e-01 -5.3736515603550501e+00 -8.5328052889372419e-01 -1 -4 -2
340 1 -2.8866640040280798e+00 -7.1499170658698441e+00 -2.3320540195599904e+00 2 1 3
3044 2 -6.6552240784498125e+00 -3.8721171821870599e+00 -7.6165032452257719e-01 -1 1 -2
3302 2 -6.4972094749010703e+00 -4.6108629570569075e+00 -9.2630315344357772e-01 -1 -2 4
3172 2 -1.4037348935971572e-01 -6.8617031106210300e+00 -1.0639202000331052e+00 0 -1 -3
419 1 -4.8687241963163412e+00 -4.2221116382959956e+00 -3.0964116093065908e-01 -5 -2 -5
783 1 -5.6465727478897252e+00 -4.3697606242528888e+00 -1.8341060873288777e+00 3 7 2
2764 2 -4.4766148628701234e+00 -3.9125846195376677e+00 -1.3933014210967247e+00 2 -1 -1
1391 1 -5.2123556968502367e+00 -4.8521584130395556e+00 -9.7771287464693124e-01 -5 -1 -1
653 1 -5.4660198726633755e+00 -3.9955087077451119e+00 -9.8992058266162264e-01 0 -1 -5
3187 2 -4.2607481743980422e+00 -4.6676146589934540e+00 -1.5232074475971737e+00 -2 1 3
3346 2 -6.2420109605712071e-01 -3.8302295997218625e+00 -5.3859556091277749e-01 0 -2 -1
439 1 -4.5658889288533420e+00 -5.3756916065433993e+00 -6.7046109424928346e-01 -3 0 -3
3439 2 -4.0873997400790287e+00 -5.3744509803679428e+00 -1.7393136068827477e+00 1 1 0
1086 1 -3.5000529374571778e+00 -5.0152696100420346e+00 -7.9056747745612554e-01 0 -2 2
1403 1 -4.1730829788276314e+00 -4.7475753666325380e+00 -3.2800417889228939e-01 4 0 3
2610 1 -3.3512609509744009e+00 -4.0275891274906588e+00 -1.7261461242698148e+00 7 5 -4
146 1 -1.7897942121117447e+00 -7.0812534370732783e+00 -1.4097856432650806e+00 -2 -4 5
1431 1 -8.5009919345164064e-01 -4.1020700315311078e+00 -3.5280392096994251e+00 -4 2 -2
230 1 -6.6755442911024510e+00 -7.1053519356142818e+00 -2.1733712458509959e+00 0 1 -2
286 1 -2.4060145683625302e+00 -7.0240483532113140e+00 -3.5524426374076836e+00 -5 2 3
2739 2 -6.5887869807499833e-02 -3.8974185568945661e+00 -2.7414980613040196e+00 0 1 -2
2375 1 -3.5240646134740730e+00 -6.4623369073411441e+00 -2.9955089905675969e-02 -1 5 -2
3312 2 -6.8918160034481692e+00 -6.3151960992581619e+00 1.0040132630254792e+00 2 -1 -1
2749 2 -6.6788864654255908e+00 -6.9964103256721470e+00 8.5793566771241458e-01 1 2 1
114 1 -5.8043436026126987e+00 -5.8884990151268646e+00 7.9056287178497442e-01 2 -6 0
2221 1 -5.7835376854169454e+00 -5.2961809695262447e+00 1.5109445769482033e+00 0 -2 0
338 1 -6.0892489417214470e+00 -6.1100452117255291e+00 1.8909141597976902e+00 0 -4 -3
1690 1 -4.9538597876024006e+00 -5.8555328744543145e+00 1.5377796380471089e+00 0 -5 -1
3278 2 -4.5859829174849001e+00 -6.2872313191117479e+00 4.3923621218921038e-01 2 -1 -1
2293 1 -5.6059278632177723e+00 -6.5766954358260499e+00 1.2830647837117954e+00 3 -4 2
3528 2 -4.7272450633915852e+00 -5.5240634695657285e+00 4.9819790645337658e-01 5 1 0
369 1 -3.9019988871917670e+00 -3.5914033812383170e+00 3.4631247281521098e+00 4 -1 -2
2501 1 -5.6131995737028264e+00 -7.0260549171328703e+00 4.9868040440828310e-01 2 2 -2
793 1 -4.2658325296851753e+00 -6.3189360753281534e+00 1.7141590404364919e+00 2 -4 0
1193 1 -3.7317474476002968e+00 -6.7242924998889224e+00 1.1752315867353467e+00 1 2 -5
2553 1 -4.0400766864907238e+00 -5.3986700558991654e+00 1.3852797908919019e+00 4 3 -6
2586 1 -3.4234175791760939e+00 -5.9807698622885992e+00 7.7299118427339941e-01 -2 -2 -1
187 1 -2.8969673314216218e+00 -5.2143592282071136e+00 1.0006264373210279e+00 5 5 -5
1537 1 -3.6744011214017278e+00 -5.2712761336649709e+00 9.9429836169142582e-02 -3 2 -1
3341 2 -2.8615364408898749e+00 -7.1245786213998370e+00 1.7321046196188430e+00 1 -3 0
623 1 -2.3471203382338794e+00 -5.8873383528241217e+00 1.0214502686812814e+00 0 1 3
1035 1 -1.8726249588050115e+00 -6.4930821136478674e+00 1.6155952739578474e+00 -1 1 -1
2192 1 -1.9464588227198503e+00 -5.3485175261743603e+00 1.6346667887616011e+00 6 -1 1
2439 1 -2.6788615933385866e+00 -6.6265525443417390e+00 6.7012220078677842e-01 1 -2 -2
106 1 -3.8469934109401822e+00 -3.6590572197234548e+00 1.0824273629992334e+00 3 3 -2
1054 1 -1.6148584986788386e+00 -6.2632252357384255e+00 6.0259664485224995e-01 2 -1 -4
1293 1 -5.8169238888187280e-01 -5.7596367102707084e+00 2.6244563204068783e-01 0 -3 0
2929 2 -6.0905291938509443e-01 -6.9675624822751443e+00 1.4133483530239630e+00 2 -1 -1
3386 2 -8.3812044746448322e-01 -6.1582229852133752e+00 1.2622816944455320e+00 -1 1 0
1109 1 -1.5337756363356814e-01 -7.0034426030807309e+00 2.6977022074998303e+00 1 -1 -2
3164 2 -1.5132762520133474e+00 -5.6878350336924113e+00 3.5656126683856080e+00 -2 1 -2
2432 1 -6.7925893670644939e+00 -4.4508866427103291e+00 2.3552206220149063e-01 -1 -1 1
2470 1 -6.0051852319068120e+00 -4.8297680427038427e+00 7.5643483219486551e-01 0 4 -3
442 1 -6.2519191197036852e+00 -3.7328952835177787e+00 7.3082115615470045e-01 0 0 3
662 1 -6.3093613532959791e+00 -5.3313468746667887e+00 1.7880106255536088e-01 6 -7 -1
1319 1 -6.1942221369299180e+00 -4.2519996699135980e+00 1.4242623246310249e+00 2 2 -3
1310 1 -2.9149478357395520e-01 -5.0257649629753658e+00 2.3395693894607543e+00 6 -1 -2
618 1 -1.1906468538612938e+00 -5.3801663332968008e+00 2.5214268451313266e+00 -1 0 -1
3251 2 -4.9329829865432098e+00 -4.6889211474331205e+00 7.4873457602662352e-01 0 -1 0
2652 1 -5.3500921766803371e+00 -4.3911910512062384e+00 1.8559796821480727e+00 6 -1 -3
3233 2 -5.0197793623478919e+00 -3.9031037896120608e+00 8.5716362279632641e-01 1 0 -2
341 1 -3.6958076570545813e+00 -4.6731220789719679e+00 7.5867973590523885e-01 -1 2 -1
2382 1 -4.1646684263507545e+00 -4.3381130527477474e+00 1.6116933954333401e+00 2 3 4
132 1 -3.9596541823019487e+00 -4.1120841127552836e+00 1.9816616188551617e-01 -2 1 2
2596 1 -3.0600351843322713e+00 -4.2964483876115152e+00 1.1735861636721374e+00 3 -3 -1
3342 2 -2.8062032125270981e+00 -4.0369704922321787e+00 1.2061555748902286e-01 0 -1 -1
2234 1 -5.9713220131040732e+00 -6.2931387052073848e+00 6.9381937105440272e-02 0 6 1
1686 1 -1.7309671984183490e+00 -5.2710453245321069e+00 5.8973388889327438e-01 4 2 0
2041 1 -2.1626716461807014e+00 -4.6677749758881184e+00 1.1296666925873620e+00 -1 -1 -2
265 1 -2.0198205617343161e+00 -3.7653418966109364e+00 1.0007929796148485e+00 -3 -1 2
2144 1 -1.5688157576803485e+00 -4.3625592099444948e+00 5.0868379213010417e-01 2 1 1
2593 1 -4.6819395463701419e-01 -5.4068037269853413e+00 3.3104265880780854e+00 -4 -1 2
1276 1 -2.0931484825611406e+00 -3.7072147643975613e+00 2.8295244266860422e+00 -2 -1 1
3017 2 -1.2422927579884702e+00 -3.8471716553275033e+00 1.6811877004304634e+00 2 -2 -2
470 1 -1.0009074519544425e+00 -3.7561956503953686e+00 5.8306615832121711e-01 -2 -1 2
3199 2 -9.0994763277719848e-01 -5.3249773295292924e+00 1.3780882996719885e+00 1 1 0
1756 1 -7.5965278945738035e-01 -4.8208994183735250e+00 4.0930033783934228e-01 3 0 1
2837 2 -1.0566343511098149e+00 -4.5837299067043560e+00 1.6570226169747126e+00 -1 0 1
206 1 -1.7298701862621702e-01 -3.7292512839933587e+00 1.4873480526580067e+00 1 2 0
3136 2 -6.9407299994117331e+00 -5.4979637936407055e+00 1.1199405739266783e+00 0 -1 0
2572 1 -6.4037713407106889e+00 -6.1523572412060847e+00 3.0003820091387698e+00 -1 2 1
1624 1 -6.6192762911847431e+00 -5.5714811763333367e+00 2.3418311604553228e+00 -4 2 0
1381 1 -6.4144842264290620e+00 -6.7400618001071386e+00 2.2693181279388828e+00 -1 5 3
2997 2 -5.2429041767806064e+00 -6.6609451882383608e+00 2.6032914016963353e+00 0 2 -2
3132 2 -5.3123102270132438e+00 -5.8586697323104060e+00 2.6582762284733246e+00 3 0 -2
471 1 -4.4497159312317924e+00 -6.2093892838259750e+00 3.3518430899324780e+00 5 5 0
422 1 -4.7950600757744422e+00 -6.9589544082917447e+00 1.3580960031654197e+00 1 2 3
41 1 -3.1796343863326411e+00 -7.0332885676199632e+00 2.9203130129047459e+00 1 -3 -3
1262 1 -3.9919192742357654e+00 -6.5142604228306480e+00 2.7079769078282023e+00 2 -1 4
869 1 -4.2148045723021923e+00 -5.6748155204811921e+00 2.4117457690987525e+00 -3 1 4
3184 2 -2.9595715979595791e+00 -6.3155986850058969e+00 1.9473334872810248e+00 3 1 1
396 1 -3.2422217758240950e+00 -6.1213417726828618e+00 2.9552567455034850e+00 -3 1 0
1099 1 -7.0153590950934417e+00 -3.8061196649131155e+00 3.2625475050665056e+00 -1 4 1
2032 1 -3.6793925325950640e+00 -5.4305839861228131e+00 3.1261775566942234e+00 0 3 -2
1008 1 -6.5521310771695820e+00 -3.7739170604909353e+00 2.2532738847913336e+00 -2 -2 7
2008 1 -2.1446431059432438e+00 -6.8235735999908238e+00 2.6410061288873159e+00 2 4 1
2648 1 -2.5831471262097798e+00 -6.4699169244398558e+00 3.3292377773163171e+00 1 4 3
1323 1 -2.3558418326873820e+00 -5.7919143162231848e+00 2.7699567457310330e+00 3 1 -4
1025 1 -1.7236092721243130e+00 -5.9752873627126686e+00 2.2953848466038824e+00 0 -6 -3
2750 2 -1.3150020708944741e+00 -6.4713599659724128e+00 3.4432665624645988e+00 0 2 -2
2340 1 -4.5645419361765072e-01 -3.8234044108372287e+00 2.5103453901022181e+00 -1 3 2
2731 1 -1.0011517008014685e+00 -6.5595628696853803e+00 2.3884991362426504e+00 0 4 -5
1540 1 -1.3361176784659978e-01 -6.3043611225941296e+00 3.1748871079532535e+00 -4 4 4
557 1 -4.7625780671752160e-01 -5.9115511140298276e+00 2.4592726125353721e+00 4 1 1
1093 1 -2.0378273468457166e+00 -7.0612563274510523e+00 9.5631639450470196e-01 1 -2 -2
2684 1 -2.5090297436726861e-01 -4.1630875680549391e+00 6.6526173063008809e-01 0 4 1
3571 2 -4.4929792772071497e+00 -7.0286006250425084e+00 2.5045175834368116e-01 1 1 0
435 1 -6.8811064922581417e+00 -4.5179287252256284e+00 2.8098622677758041e+00 -1 -2 -1
1174 1 -6.2937298905423944e+00 -4.8104593409654175e+00 2.2275254013334376e+00 -5 2 2
599 1 -6.4638222896409330e+00 -5.2373494821920161e+00 3.1661474154797222e+00 5 3 -2
1637 1 -8.7791496763366439e-01 -6.5811272579282303e+00 1.0140757058205896e-01 0 -1 -4
1554 1 -4.7986735424425033e+00 -5.0108499593377385e+00 1.8908476239437295e+00 -2 -1 1
1244 1 -4.5326131482512082e+00 -4.2802890633325337e+00 3.3326263986992828e+00 2 -1 -6
1590 1 -4.7305663171522188e+00 -3.8255764673012940e+00 2.0463386645252175e+00 1 2 4
2970 2 -5.4375070963170415e+00 -5.0933336132322742e+00 2.8069261787205928e+00 0 0 2
186 1 -4.3394337460250370e+00 -4.6560472080598228e+00 2.5201338131189903e+00 4 3 -3
3377 2 -5.5450304035462104e+00 -4.3282473943750155e+00 2.8257380089378312e+00 -2 0 0
3553 2 -2.5649649261782814e+00 -4.7769624675050242e+00 1.5260755023351891e-03 0 0 -2
3336 2 -3.3436665054803205e+00 -3.8619818045501773e+00 2.5291115956421866e+00 0 2 -3
3577 2 -3.1776003669007493e+00 -5.4576279406201600e+00 2.0146133242818074e+00 -1 1 1
2931 2 -3.2981350492718069e+00 -4.6591725629506575e+00 2.2572329952145953e+00 1 1 -3
2056 1 -4.4469217481321950e+00 -5.3237773877245695e+00 3.1925447482346581e+00 -1 4 4
642 1 -3.7501850402095740e+00 -4.5870774196998205e+00 3.3618700684477378e+00 3 0 -2
2366 1 -7.1632672869995773e-01 -4.5787293124016433e+00 3.0892137066303746e+00 1 2 0
467 1 -2.5175005344500505e+00 -4.4636713122616269e+00 3.1437028884251408e+00 -1 4 3
782 1 -1.4953393369919858e+00 -4.3682324788993805e+00 2.7564193176423846e+00 -3 -2 -3
2608 1 -2.0627083480477921e+00 -4.9383827712811765e+00 2.4299081605771455e+00 4 -1 0
1605 1 -2.2696302126239827e+00 -4.2086986181672517e+00 1.9143047860217628e+00 -2 -1 -1
2616 1 -2.8050623837234490e+00 -5.2371628981183029e+00 3.2883440012902074e+00 0 3 2
3254 2 -5.8474312983067227e+00 -3.6399521148116580e+00 3.0040850717751777e+00 2 1 -2
1655 1 -5.8827755047223524e+00 -4.1701711397929664e+00 1.2303400578470125e-02 0 3 0
1512 1 -6.5060838107871461e+00 -6.1561826839386864e+00 3.8615258118370441e+00 -1 4 5
1981 1 -6.8823614397984851e+00 -6.7660744998064191e+00 4.8506179700607692e+00 -1 3 2
3202 2 -5.9299397372323988e+00 -5.9909994557556425e+00 4.8016781683720193e+00 0 -2 -1
2417 1 -5.7959304708835475e+00 -5.5301336862854118e+00 3.7223271602288754e+00 1 -2 1
3492 2 -5.6693013795656508e+00 -6.7423892830639680e+00 4.7181919829657524e+00 3 -1 -2
921 1 -4.6363600050595872e+00 -6.4814627243013110e+00 4.5099554593678128e+00 -1 5 -2
1559 1 -5.0276914736213563e-01 -7.0359734752665393e+00 4.1412411352952070e+00 -2 -1 2
1825 1 -5.0388313073859123e+00 -5.9577785531997822e+00 3.9085069504637477e+00 4 -2 -2
2045 1 -4.6820888229656852e+00 -5.9525686404660156e+00 5.2460178786761844e+00 1 -1 -1
355 1 -4.8356383697766088e+00 -6.8822312460316066e+00 3.6948274428682613e+00 1 1 4
199 1 -3.8089348721959748e+00 -6.5461844827339881e+00 5.1440562518894932e+00 3 -1 -3
3314 2 -3.6484417204721544e+00 -6.0045005780465184e+00 4.1075705023177296e+00 0 1 -3
2948 2 -3.5978577899185269e+00 -6.7460486579053480e+00 4.0716591466578400e+00 1 1 0
1736 1 -2.9454760719344195e+00 -6.3562071468322969e+00 4.9445145871012492e+00 -1 0 2