ITEM: TIMESTEP
6700000
ITEM: NUMBER OF ATOMS
10000
ITEM: BOX BOUNDS pp pp pp
-1.0453842000444242e+01 1.0453842000444242e+01
-1.0453842000444242e+01 1.0453842000444242e+01
-1.0453842000444242e+01 1.0453842000444242e+01
ITEM: ATOMS id mol type x y z
169 17 2 -9.21592 -8.96732 -8.9992
166 17 2 -10.0312 -9.4493 -9.29765
164 17 1 -9.68829 -10.3272 -9.91383
9331 934 1 -9.61509 -9.7173 -10.4508
9332 934 1 -8.94323 -10.057 -9.44763
9561 957 1 -8.82779 -9.56664 -10.089
163 17 1 -9.05347 -10.2894 -10.3814
9562 957 1 -8.50007 -9.23264 -9.47774
162 17 1 -7.76294 -9.74149 -9.7953
9550 955 2 -6.7334 -9.64358 -8.97381
4017 402 2 -6.65902 -9.32438 -9.81109
9548 955 2 -6.92666 -10.3987 -9.73874
4658 466 2 -5.95609 -10.0006 -9.45624
4961 497 1 -5.35454 -9.21284 -9.70349
7512 752 1 -5.51708 -9.72809 -10.2525
1158 116 2 -4.93069 -10.4532 -9.6423
7029 703 2 -4.33085 -9.83358 -9.40734
7030 703 2 -4.1187 -9.05757 -10.3825
8341 835 1 -3.65321 -10.0374 -10.2327
7026 703 2 -2.42149 -10.4421 -9.95248
7025 703 1 -3.36648 -9.63573 -9.53784
1160 116 2 -2.49827 -9.67619 -9.82823
8607 861 2 -1.84265 -9.07053 -9.55347
8606 861 2 -1.85908 -9.85563 -9.04272
9064 907 1 -0.778458 -9.88583 -10.3623
7579 758 2 -1.58876 -10.2106 -9.68853
8608 861 2 -0.868382 -9.86584 -9.14252
3291 330 1 -0.471441 -8.96656 -9.98919
8609 861 2 0.138681 -9.78098 -9.98038
4876 488 2 0.3844 -9.32232 -9.24641
4468 447 2 0.338639 -10.1365 -9.33386
491 50 1 1.48073 -10.261 -9.10965
4874 488 1 1.41217 -9.63948 -9.90384
4079 408 2 0.90857 -10.3442 -10.2433
492 50 1 1.98657 -9.18971 -9.15669
5540 554 2 2.99426 -9.4095 -9.49532
499 50 2 2.59025 -9.64512 -10.0241
4122 413 1 4.03599 -10.1643 -9.16182
4125 413 1 3.81567 -9.6468 -9.74304
4123 413 1 4.37693 -9.02796 -9.6138
9055 906 1 4.56569 -10.3511 -9.79347
8535 854 1 4.96634 -9.57953 -10.3588
4124 413 1 5.08896 -9.89393 -9.40725
8537 854 2 6.07023 -9.29599 -9.15486
8539 854 2 6.16692 -9.89421 -9.75339
7041 705 1 7.19457 -9.99053 -9.33365
1494 150 1 7.74617 -9.71779 -10.1542
4364 437 1 7.94673 -9.48058 -9.18446
9923 993 1 8.68067 -9.5485 -9.88002
4365 437 1 9.15234 -9.67979 -9.12564
4840 484 2 10.0975 -9.73532 -9.71868
8158 816 2 -9.76261 -8.82086 -9.81204
8152 816 1 -10.1132 -7.91216 -10.0257
1801 181 1 -9.99211 -7.88556 -9.16132
170 17 2 -9.15332 -8.48887 -10.0248
5670 567 2 -8.7481 -8.16437 -9.16539
5980 598 2 -8.23487 -8.25619 -9.95551
5666 567 2 -7.93328 -7.69577 -9.02889
4019 402 2 -7.58755 -8.55897 -9.54195
9532 954 1 -7.03948 -7.54524 -9.09899
4660 466 2 -6.70519 -8.26408 -9.69521
4659 466 2 -6.05025 -8.65699 -9.17717
7515 752 1 -5.9005 -7.90076 -10.1083
5172 518 1 -5.16691 -7.48286 -9.88811
7514 752 1 -4.89751 -8.36625 -9.51861
4758 476 2 -4.11827 -8.94428 -9.47154
9290 929 2 -2.25567 -8.28865 -9.96855
6643 665 1 -3.126 -8.68407 -9.89574
4821 483 1 -3.43311 -7.84986 -9.83562
2030 203 2 -2.37371 -7.58339 -10.2582
2026 203 2 -1.39583 -8.18983 -9.69237
3293 330 1 -0.464386 -8.92464 -9.10897
3294 330 1 -0.410965 -7.88018 -9.94555
3292 330 1 0.576071 -8.74973 -10.0051
972 98 1 0.464944 -7.47079 -10.2966
971 98 1 0.0750408 -8.34558 -9.46748
5527 553 2 0.397324 -7.52459 -9.08887
517 52 2 1.73745 -7.92256 -9.75094
3297 330 2 1.35408 -8.49765 -9.4776
3299 330 2 2.55208 -8.29987 -9.44637
500 50 2 2.11656 -8.56713 -10.325
5538 554 2 3.18808 -8.57765 -9.97444
3300 330 2 3.79483 -7.57647 -9.26015
1866 187 2 4.18568 -8.22253 -10.1911
7587 759 2 5.08478 -7.97592 -10.1805
5577 558 2 4.89524 -7.58783 -9.27806
5572 558 1 5.09914 -8.70568 -9.32535
8533 854 1 5.40131 -8.93718 -10.1305
5571 558 1 6.199 -8.18973 -9.07703
8532 854 1 5.746 -7.48794 -10.2805
1295 130 1 6.05802 -8.24313 -9.94395
1296 130 2 6.94921 -8.95646 -9.80676
1294 130 1 7.1277 -8.03437 -9.49279
1297 130 2 8.06169 -8.58 -9.8553
7361 737 1 8.3805 -7.61146 -9.89306
167 17 2 10.0763 -8.78803 -9.99602
1299 130 2 10.2437 -8.74311 -9.15435
1298 130 2 9.1839 -8.67478 -10.1947
4366 437 2 9.29502 -8.51985 -9.43396
5414 542 1 10.0153 -7.84151 -9.49904
524 53 1 -9.47281 -7.36853 -10.0038
1802 181 1 -9.22501 -6.84065 -9.50249
7949 795 2 -10.3041 -6.51713 -8.98342
4368 437 2 -10.3375 -6.77215 -9.86276
9531 954 1 -8.17978 -7.13809 -10.1143
6178 618 2 -8.44703 -6.04263 -9.78891
5175 518 1 -7.18094 -7.20653 -10.0691
5265 527 1 -7.4483 -6.46813 -9.51827
5267 527 2 -6.73484 -6.1347 -10.2313
5174 518 1 -6.23547 -7.05137 -9.29258
2629 263 2 -6.00592 -6.18489 -9.7387
6173 618 1 -5.2963 -6.55868 -10.27
8664 867 1 -5.00963 -6.50283 -9.50114
5180 518 2 -4.2931 -7.43762 -9.17631
5179 518 2 -4.35114 -6.96961 -10.338
3989 399 2 -3.93521 -6.778 -9.55318
3417 342 2 -3.64278 -6.08087 -9.99812
3416 342 2 -3.27906 -7.02285 -10.3506
2023 203 1 -2.66575 -7.25 -9.14416
2024 203 1 -2.63084 -6.30832 -9.59195
2022 203 1 -1.49003 -7.39103 -9.13371
3611 362 1 -1.91321 -6.74877 -9.51127
2025 203 1 -1.0443 -6.63355 -9.76108
973 98 1 -0.664732 -7.42359 -9.39216
1421 143 1 -0.178477 -6.78257 -9.91056
974 98 1 0.457839 -6.36341 -9.88497
518 52 2 0.944276 -7.17277 -9.48054
3296 330 2 1.93865 -7.42657 -10.3924
516 52 2 1.55726 -6.75127 -9.90715
5682 569 1 2.82584 -7.37518 -9.87801
5683 569 1 2.40995 -6.62697 -9.16393
5681 569 1 3.11772 -6.4498 -9.72562
111 12 1 3.51711 -7.26216 -10.3079
113 12 1 4.01236 -6.67061 -9.89204
3191 320 1 5.08898 -6.68199 -10.0779
114 12 1 5.15225 -6.16507 -9.45353
7586 759 2 5.72113 -7.32089 -9.23152
5579 558 2 6.19286 -6.45547 -9.57645
120 12 2 6.59841 -7.28832 -9.85723
1491 150 1 7.54855 -7.45185 -9.2348
7049 705 2 6.67011 -6.69892 -9.05835
117 12 2 6.86865 -6.4427 -10.2014
5413 542 1 8.8245 -7.43577 -9.24692
119 12 2 7.72534 -6.24662 -10.0432
5416 542 2 8.67082 -6.48379 -9.73035
7950 795 2 9.90406 -6.03572 -9.57065
9899 990 2 9.77818 -6.755 -9.06304
6280 628 2 9.56458 -6.8255 -9.97022
6179 618 2 -9.4978 -5.96562 -9.93449
3650 365 2 -9.89457 -5.54237 -9.29414
6180 618 2 -10.1577 -4.66718 -9.8607
1503 151 1 -9.28613 -5.00409 -10.2767
3648 365 2 -8.77727 -5.52549 -9.14386
3645 365 1 -8.30463 -4.78219 -8.97137
5266 527 2 -7.63967 -5.40492 -9.92037
6176 618 2 -6.71128 -5.49126 -10.0055
5268 527 2 -6.68499 -4.92551 -9.5193
8663 867 1 -5.5848 -5.19621 -9.48799
8666 867 2 -5.88823 -4.64091 -10.2595
6172 618 1 -4.88612 -5.53937 -9.4472
2899 290 2 -3.93073 -4.52002 -9.56401
3420 342 2 -4.22992 -5.22624 -9.93325
9211 922 1 -3.48455 -5.70731 -8.98812
9285 929 1 -2.3019 -5.3881 -9.86581
9213 922 1 -3.13528 -4.86361 -9.51268
4827 483 2 -1.98926 -5.30833 -9.03101
7962 797 1 -1.47381 -5.89971 -9.87506
7963 797 1 -1.19884 -4.94918 -10.2819
6239 624 2 -1.34805 -4.59285 -9.28844
1423 143 1 -0.606868 -5.8833 -9.79135
9873 988 1 -0.380545 -4.92626 -9.68729
7965 797 1 0.705529 -5.38197 -9.77988
7966 797 2 1.34296 -5.72606 -9.4371
7967 797 2 1.78373 -5.93402 -9.88773
6235 624 1 0.79563 -4.49892 -9.82517
977 98 2 1.64917 -4.67668 -10.4294
3957 396 2 1.85068 -5.02865 -9.75803
514 52 1 2.79689 -5.73067 -9.54022
513 52 1 2.88009 -4.4881 -9.07849
8404 841 1 3.0622 -4.82811 -9.74866
49 5 2 4.18548 -5.62042 -9.90532
7989 799 2 3.88174 -5.64368 -9.07347
7987 799 2 4.67229 -5.04994 -10.2736
8406 841 2 4.55126 -4.7441 -9.57239
5970 597 2 3.71935 -4.78213 -9.04886
7985 799 1 5.49565 -5.80954 -10.1129
3193 320 1 6.00041 -5.3017 -9.1858
3192 320 1 5.50316 -5.07875 -9.72951
9832 984 1 5.9727 -4.80633 -10.2886
6281 629 1 6.79651 -5.37439 -9.48167
7364 737 1 6.46779 -5.3835 -10.4206
6282 629 1 7.56716 -5.27098 -9.03848
9831 984 1 7.26964 -4.99323 -9.91696
6279 628 2 8.70179 -5.70187 -9.46544
9611 962 1 8.8874 -5.62814 -10.4161
6285 629 1 7.75974 -4.51829 -9.63388
9834 984 1 8.10905 -5.07815 -10.1855
6283 629 1 8.7981 -4.76986 -9.41503
9613 962 1 9.57193 -4.96166 -10.0614
3649 365 2 -9.25384 -4.17946 -9.37381
3198 320 2 -10.2467 -4.27304 -9.15353
209 21 2 -10.22 -3.82511 -10.056
6407 641 2 -9.23964 -3.49176 -10.272
5392 540 1 -8.35819 -4.05992 -9.79562
1502 151 1 -8.38139 -4.3293 -10.4395
6408 641 2 -7.95061 -3.05384 -10.0639
2335 234 1 -7.58543 -4.41366 -9.68546
1414 142 1 -7.5557 -3.52063 -9.22343
2336 234 2 -6.43231 -4.10721 -10.1101
6409 641 2 -6.74889 -3.42329 -9.95639
5496 550 2 -5.88257 -3.86253 -9.48451
5269 527 2 -5.21146 -4.22598 -9.78161
2569 257 2 -4.28278 -3.77629 -9.47466
8054 806 1 -4.11626 -3.47815 -10.4218
9876 988 2 -2.20418 -3.5302 -10.214
8055 806 1 -3.20593 -3.59927 -9.67365
181 19 1 -3.20405 -4.28381 -10.1612
9219 922 2 -2.05917 -4.17795 -9.68424
6795 680 1 -0.822268 -3.87447 -9.8287
6240 624 2 -1.95266 -3.41528 -9.47807
6797 680 2 -0.472619 -4.03939 -8.97689
7964 797 1 0.0302519 -4.24104 -10.054
321 33 1 0.687901 -3.48767 -9.84557
6798 680 2 0.242292 -4.23786 -9.00784
6234 624 1 0.0750298 -3.22739 -9.98928
511 52 1 1.1864 -3.58287 -9.06994
3956 396 2 1.50092 -3.88299 -10.4141
6799 680 2 1.75042 -4.45031 -9.28161
3955 396 1 2.05462 -3.03985 -9.57013
3954 396 1 2.84271 -3.97114 -10.0451
512 52 1 2.64303 -3.52779 -9.14003
85 9 1 3.1883 -3.07743 -9.53576
8405 841 1 3.97674 -4.03834 -10.0835
4332 434 1 3.50401 -3.69955 -9.22535
4335 434 1 4.72258 -3.58951 -10.004
4333 434 1 3.8113 -3.07761 -10.3923
4331 434 1 4.89585 -3.21911 -9.19921
4336 434 2 5.32804 -3.95195 -9.0556
8408 841 2 5.76895 -3.70769 -10.0832
4137 414 2 6.03198 -3.26104 -9.48872
4138 414 2 6.78889 -4.14983 -9.4708
4139 414 2 6.83498 -3.25712 -10.1843
6286 629 2 7.04564 -3.24242 -9.09918
9836 984 2 7.75613 -3.59747 -10.034
9835 984 1 8.2512 -4.09316 -9.05792
6591 660 1 8.73463 -3.55096 -9.79035
9840 984 2 7.88245 -3.18073 -9.25591
6693 670 1 9.0233 -3.15771 -9.02308
2139 214 2 9.92932 -3.95938 -10.1244
208 21 2 9.6192 -3.73367 -9.35689
201 21 1 -9.28637 -2.19801 -10.334
5407 541 2 -9.52941 -2.01914 -9.22938
202 21 1 -9.57032 -2.98154 -9.09879
8653 866 1 -10.0981 -2.95575 -9.88151
1416 142 2 -8.64786 -2.22123 -9.44834
1418 142 2 -7.79996 -2.42081 -9.19467
1417 142 2 -8.67482 -2.90444 -10.2208
9784 979 1 -8.41118 -1.69624 -10.2724
1953 196 1 -7.04733 -2.29193 -10.3136
1420 142 2 -6.33894 -2.94477 -8.96912
8112 812 1 -6.62111 -2.06111 -9.54528
1952 196 1 -6.90435 -1.53189 -8.98279
6410 641 2 -5.77783 -2.9612 -9.69496
7810 781 2 -5.30238 -2.03131 -10.0848
2570 257 2 -5.00959 -2.97557 -9.62514
852 86 1 -3.55448 -2.88431 -10.3788
1959 196 2 -4.07865 -1.84914 -9.68932
2568 257 2 -4.2801 -2.54802 -9.51636
184 19 1 -3.13939 -2.72947 -9.82194
853 86 1 -2.94966 -2.12997 -9.48579
1191 120 1 -2.60521 -1.58885 -10.2935
8477 848 2 -1.94949 -2.62957 -9.57707
9220 922 2 -2.08891 -2.71793 -10.3038
6794 680 1 -0.919905 -2.36639 -9.99941
8478 848 2 -0.965234 -1.85157 -9.13815
5501 551 1 -0.790175 -2.9715 -9.3946
5508 551 2 -1.82801 -1.64611 -9.59955
6232 624 1 -0.141732 -2.19503 -10.1316
8438 844 2 0.655736 -2.4958 -9.2782
8480 848 2 0.0593442 -1.94489 -9.15038
6233 624 1 1.2884 -2.44686 -9.97965
84 9 1 2.02579 -2.34644 -9.84207
83 9 1 0.918352 -1.67081 -9.95776
3953 396 1 2.8127 -2.44652 -10.0262
329 33 2 2.78538 -1.71953 -9.22653
86 9 2 3.99944 -2.59733 -9.20774
7886 789 2 4.25757 -2.18504 -10.1472
87 9 2 3.50716 -1.68288 -9.8027
4136 414 2 5.22343 -2.05037 -9.38325
7883 789 1 5.3106 -2.75385 -10.2006
4140 414 2 6.05323 -2.34554 -9.70463
7383 739 1 6.8286 -2.22602 -9.34953
651 66 1 7.35194 -2.31119 -10.3204
6592 660 1 8.57362 -2.46719 -9.18006
6692 670 1 8.05709 -2.49863 -9.91826
7382 739 1 7.80108 -1.56652 -9.26064
6594 660 1 8.98737 -1.56232 -9.67813
8652 866 1 10.1114 -2.95615 -9.38448
6691 670 1 9.27254 -2.42651 -9.72539
5409 541 2 10.3453 -1.68426 -9.90017
5410 541 2 -9.25273 -0.899147 -9.87962
2190 219 2 -9.45066 -0.209083 -9.7211
2186 219 2 -8.78168 -0.213615 -9.08068
9785 979 1 -7.78606 -1.4792 -9.84457
574 58 1 -8.05957 -0.370684 -10.1053
8111 812 1 -7.5759 -0.914546 -8.99007
7806 781 2 -6.87265 -0.247166 -9.71168
4318 432 2 -6.60641 -1.01863 -9.96065
4317 432 2 -5.95874 -0.874872 -9.00729
7807 781 2 -5.91166 -1.19623 -9.96985
1844 185 1 -5.43 -0.374908 -9.58305
7809 781 2 -4.99599 -1.21898 -9.60802
1957 196 2 -4.04569 -0.0248892 -9.79636
338 34 2 -3.75441 -1.10337 -9.89867
1956 196 2 -4.54987 -1.45312 -10.3105
1192 120 1 -3.07558 -1.06178 -9.01158
854 86 1 -2.77447 -0.683857 -10.0417
332 34 1 -2.11902 -0.354598 -9.10441
331 34 1 -3.37626 -0.45539 -9.20286
5507 551 2 -1.58568 -0.682077 -10.0037
5509 551 2 -0.696958 -1.04067 -9.40364
5510 551 2 -0.283589 -0.12432 -10.3971
82 9 1 -0.236733 -1.19141 -10.3775
3465 347 1 0.332724 -0.759621 -9.69535
2102 211 1 1.30582 -1.22098 -9.14829
2106 211 2 1.28623 -0.0784523 -9.46308
1389 139 2 1.56839 -0.254617 -10.4329
330 33 2 1.85693 -1.05403 -9.95136
7888 789 2 2.65756 -1.15368 -9.83892
7889 789 2 2.13703 -0.174154 -9.34287
1612 162 1 3.7201 -0.568185 -9.58763
351 36 1 4.12261 -1.20382 -9.24685
88 9 2 4.34032 -0.895947 -10.4198
1613 162 1 4.99137 -1.08604 -9.65353
1614 162 1 6.0235 -0.253196 -10.2128
944 95 1 5.84449 -0.0335115 -9.42435
4110 411 2 6.09223 -1.33247 -9.38182
943 95 1 5.63922 -1.00752 -10.2426
942 95 1 5.27976 -0.399089 -9.12173
4109 411 2 6.91738 -0.573343 -9.96776
2369 237 2 6.52367 -0.706343 -9.11711
949 95 2 6.7076 -1.29389 -9.80734
8657 866 2 8.19053 -1.30671 -10.2
7381 739 1 8.56614 -0.68783 -9.4169
5619 562 2 7.70168 -0.327047 -10.1162
3599 360 2 8.48365 -0.0595193 -10.4494
4101 411 1 9.26677 -0.261435 -9.98733
6700 670 2 9.77489 -1.27961 -9.0361
2184 219 1 10.2967 -0.438031 -9.87464
4180 418 2 -9.8411 -9.7103 -7.83829
9565 957 1 -9.10987 -9.13132 -7.5112
165 17 1 -9.85256 -10.2594 -8.64628
9564 957 1 -8.94821 -9.94144 -8.4797
5724 573 1 -8.53331 -9.83964 -7.65198
161 17 1 -8.25613 -9.76135 -8.65161
5723 573 1 -7.92076 -9.7395 -7.61973
4016 402 2 -6.78921 -10.3145 -8.9409
9563 957 1 -7.58818 -9.54035 -8.60934
5725 573 1 -7.23341 -9.6236 -7.72982
3985 399 1 -6.58515 -9.134 -8.07963
3984 399 1 -6.60977 -10.4061 -7.81789
7513 752 1 -5.24672 -9.19323 -8.87122
5726 573 2 -5.96611 -9.87618 -8.40303
4656 466 2 -5.38622 -9.96892 -7.76848
8280 828 2 -5.15355 -10.2447 -8.73066
7024 703 1 -4.1692 -9.50787 -8.39915
5727 573 2 -4.75267 -10.3878 -7.93748
4655 466 1 -3.92359 -9.30836 -7.54696
7021 703 1 -2.45933 -9.40289 -8.45715
4781 479 1 -3.13289 -10.1676 -7.62669
7023 703 1 -3.24421 -9.82011 -8.50159
8603 861 1 -2.0603 -10.0661 -7.74496
8604 861 1 -1.34028 -9.40253 -8.29108
3660 366 2 -0.577813 -9.53112 -7.46708
4877 488 2 -0.305734 -9.34263 -8.16682
3657 366 2 -0.387024 -10.3731 -8.3402
4470 447 2 0.437648 -10.2944 -8.05787
3659 366 2 0.524705 -9.53475 -8.06767
4875 488 1 1.49932 -9.49763 -8.45038
493 50 1 1.66101 -8.97784 -7.854
4463 447 1 1.85542 -9.76697 -7.64985
6390 639 2 2.44943 -9.99904 -8.80017
498 50 2 3.29249 -9.40591 -8.62251
494 50 1 2.69484 -9.54305 -7.92281
5573 558 1 4.312 -9.67028 -8.43243
1788 179 2 4.15068 -9.81913 -7.47351
9054 906 1 5.09534 -9.88897 -8.64643
9052 906 1 5.02827 -9.47061 -7.82025
8369 837 2 6.26784 -10.2172 -8.92113
8368 837 2 6.15537 -9.41581 -8.109
4361 437 1 7.04422 -9.70646 -8.3038
4050 405 2 8.17606 -9.58664 -8.04459
2256 226 2 8.51623 -8.99803 -8.45475
2257 226 2 8.30106 -10.4234 -8.61737
168 17 2 10.3104 -9.3299 -8.75171
7646 765 2 10.3684 -9.20479 -7.81139
4041 405 1 10.1025 -10.2922 -8.68437
2255 226 1 9.27424 -10.1427 -8.46486
1300 130 2 9.38314 -8.99613 -8.54958
4042 405 1 9.62258 -10.0374 -7.64938
5667 567 2 -9.1293 -7.85221 -8.41562
8159 816 2 -9.85997 -8.55536 -8.46852
8160 816 2 -10.1241 -7.97645 -7.77597
5668 567 2 -7.96192 -8.44909 -8.78069
1808 181 2 -8.39037 -8.78951 -8.13692
1809 181 2 -8.19775 -7.64968 -8.18921
1810 181 2 -7.506 -8.48993 -7.66422
5664 567 1 -7.09314 -7.75428 -8.29464
9533 954 1 -6.84293 -8.55941 -8.53449
7516 752 2 -6.01411 -7.71947 -8.82508
9534 954 1 -5.84517 -8.9533 -7.68135
3986 399 2 -5.97616 -8.12205 -8.08673
7517 752 2 -5.25003 -7.6832 -7.77568
4760 476 2 -5.25575 -8.15371 -8.65674
4654 466 1 -4.8875 -8.94787 -7.78482
4759 476 2 -3.86134 -8.26878 -8.75077
3987 399 2 -4.52156 -8.12132 -7.96042
3988 399 2 -3.56342 -7.58015 -8.36437
3620 362 2 -3.53017 -8.50211 -7.52056
4824 483 1 -2.53654 -8.1853 -8.88432
4822 483 1 -3.01654 -8.87619 -8.70528
3619 362 2 -2.2777 -8.71262 -7.48067
3618 362 2 -2.81091 -8.0597 -7.97505
4825 483 1 -1.68793 -7.75528 -8.2594
4823 483 1 -1.69866 -8.59246 -8.50607
2021 203 1 -0.808947 -8.07692 -8.68878
4878 488 2 0.285328 -8.3511 -8.29867
3298 330 2 1.0571 -8.0716 -8.83533
4469 447 2 0.745466 -8.91338 -8.6527
5521 553 1 1.32035 -7.71353 -8.03437
3651 366 1 1.07078 -8.35131 -7.49369
5524 553 1 1.88982 -8.40708 -8.39917
1867 187 2 3.37007 -8.46276 -8.94957
4462 447 1 2.43527 -8.89108 -8.57534
4461 447 1 2.268 -7.68718 -8.70144
5258 526 2 3.0041 -8.34586 -7.81968
5256 526 2 2.73226 -7.47711 -7.61958
768 77 2 3.79091 -8.84492 -7.56304
5576 558 2 4.04853 -8.70835 -8.38367
5574 558 1 4.70119 -8.17666 -8.20621
5575 558 1 5.27066 -8.93283 -8.39906
7724 773 1 5.95984 -7.56489 -8.13782
7582 759 1 5.6257 -8.23863 -7.92214
1493 150 1 7.19864 -8.91292 -8.83423
7726 773 2 6.4863 -8.78044 -7.90593
4048 405 2 7.62181 -8.8284 -8.17621
1492 150 1 6.67753 -7.97621 -8.51306
4049 405 2 8.3853 -8.4849 -8.93062
23 3 1 8.96027 -8.86343 -7.50497
4046 405 2 7.92371 -8.15593 -8.22223
4045 405 1 8.88811 -7.79979 -7.9281
521 53 1 9.64973 -8.3087 -7.70722
5412 542 1 9.64396 -7.88524 -8.35911
522 53 1 10.3839 -7.64592 -8.66506
523 53 1 -9.40791 -6.84406 -8.72699
1804 181 1 -9.94766 -6.96017 -8.07593
1803 181 1 -9.26451 -6.6248 -7.84991
4643 465 1 -10.1436 -6.09315 -7.85121
5669 567 2 -8.45605 -7.21305 -8.81529
3646 365 2 -8.44128 -6.33715 -8.90887
5662 567 1 -8.65024 -6.9214 -7.48091
5264 527 1 -7.68229 -6.30045 -7.89633
5665 567 1 -7.27121 -6.61803 -8.79996
5661 567 1 -7.3912 -7.14028 -7.53307
9540 954 2 -6.75915 -6.30451 -8.06119
5171 518 1 -5.4082 -6.83678 -8.8683
9539 954 2 -6.25165 -6.05062 -8.9047
9538 954 2 -6.14732 -7.10348 -8.08049
2630 263 2 -5.46315 -5.98895 -8.39709
7822 783 1 -4.66521 -6.87028 -8.26498
3615 362 1 -3.73298 -6.56421 -8.1007
3613 362 1 -3.26758 -6.56868 -8.8529
3612 362 1 -2.12788 -7.13467 -8.54302
3616 362 2 -2.70036 -6.83661 -7.64963
4880 488 2 -0.884303 -7.16235 -7.81673
4826 483 2 -1.5404 -6.32331 -8.58592
2448 245 2 -1.55092 -6.76112 -7.54744
519 52 2 -0.0246451 -7.35207 -8.45524
5528 553 2 -0.612777 -6.56345 -8.61927
520 52 2 0.330863 -6.66234 -8.77271
8303 831 1 0.625223 -6.91516 -7.60905
8305 831 1 0.46032 -6.01759 -7.71755
5523 553 1 1.8472 -7.06495 -8.94401
5526 553 2 1.02663 -6.32461 -8.87497
5525 553 1 1.42353 -6.96726 -8.21514
5522 553 1 1.27373 -6.32525 -7.86729
515 52 1 1.9326 -6.18709 -8.57866
1868 187 2 3.18867 -7.39987 -8.53311
1869 187 2 2.57478 -6.63781 -7.85953
7990 799 2 3.22405 -6.4509 -8.5567
7585 759 1 4.47044 -6.60254 -8.86519
7584 759 1 4.62988 -7.26069 -8.14819
769 77 2 3.69572 -7.36028 -7.90607
7981 799 1 4.49382 -6.06854 -8.20314
7583 759 1 6.02785 -7.39699 -7.48504
5580 558 2 5.90278 -6.03994 -8.34787
5578 558 2 5.54714 -6.86676 -8.54349
763 77 1 6.75658 -7.0064 -7.6788
7725 773 1 7.26231 -7.4152 -8.2104
4338 434 2 6.65444 -6.18016 -8.29905
6278 628 2 7.7174 -6.37469 -8.91653
5411 542 1 8.37317 -7.21939 -8.40419
762 77 1 7.89219 -7.03757 -7.5707
6277 628 2 8.46686 -6.02718 -8.12981
9900 990 2 9.11707 -5.98497 -8.77924
5415 542 1 9.15017 -7.21006 -8.58496
9898 990 2 9.76372 -6.89154 -7.92602
7948 795 2 -9.46274 -5.78817 -8.81365
4641 465 1 -10.0957 -4.99978 -8.47712
7947 795 2 -9.15145 -4.87527 -8.3329
3647 365 2 -8.86447 -5.63984 -7.927
5261 527 1 -7.84852 -5.55551 -8.59389
4327 433 2 -9.03121 -4.76717 -7.4806
5263 527 1 -7.77636 -4.98773 -7.97051
2628 263 2 -6.835 -5.5005 -8.68598
1413 142 1 -7.49964 -4.59776 -8.58096
2627 263 2 -7.02112 -5.10358 -7.51394
9778 978 2 -5.89399 -5.95795 -7.86125
6171 618 1 -6.03545 -5.12044 -8.74925
8661 867 1 -5.73785 -4.82617 -7.81147
5495 550 1 -5.22004 -4.72004 -8.60064
3614 362 1 -4.25422 -5.87993 -8.73307
9776 978 2 -4.77205 -5.62558 -7.87445
4830 483 2 -3.92848 -5.33768 -7.78103
2900 290 2 -4.13057 -4.82027 -8.59347
4828 483 2 -2.95162 -5.87585 -7.95529
5530 553 2 -2.30169 -5.87826 -8.69127
9284 929 1 -3.03895 -5.05976 -8.71813
9212 922 1 -3.00386 -4.52391 -8.15673
1235 124 1 -2.49167 -5.10849 -7.58903
5529 553 2 -1.0489 -5.40367 -8.93351
4894 490 1 -1.5398 -5.61725 -7.69241
1233 124 1 -1.84112 -4.91462 -8.00399
4892 490 1 -0.933829 -4.80483 -8.0383
4893 490 1 -0.469363 -5.93821 -7.86375
6238 624 2 -0.0501344 -4.97665 -8.80032
6791 680 1 -0.0824967 -5.19776 -7.75562
6236 624 2 0.39129 -5.76868 -8.8853
6800 680 2 0.998001 -5.53484 -8.48894
8402 841 1 1.69853 -5.52818 -7.79329
6237 624 2 1.21036 -4.84496 -8.92165
5961 597 1 1.54239 -4.65166 -7.7124
5963 597 1 2.55972 -5.5771 -8.81296
9134 914 1 3.33137 -5.74495 -7.80913
5962 597 1 2.42903 -5.66847 -7.49261
9135 914 1 2.77942 -4.97194 -7.5385
5964 597 1 2.09531 -5.07223 -8.54886
8403 841 1 2.97012 -4.91406 -8.38611
7983 799 1 3.93244 -5.34786 -8.09729
7982 799 1 4.80441 -4.6814 -7.63041
7984 799 1 4.97459 -5.53505 -8.77685
4339 434 2 5.50619 -5.46049 -7.62083
4340 434 2 5.36371 -4.6184 -8.47795
4337 434 2 6.01392 -4.78131 -8.12574
8130 813 2 7.62801 -5.84184 -8.21737
3194 320 1 7.3022 -4.50219 -8.76649
6288 629 2 6.78381 -5.14225 -8.04794
7390 739 2 7.76304 -5.41521 -7.54241
3195 320 1 8.4812 -4.92254 -8.57071
6284 629 1 7.81173 -4.53319 -8.2512
3196 320 2 9.00401 -5.0972 -8.1176
4644 465 1 10.2455 -5.62298 -8.51161
4642 465 1 9.6877 -5.41519 -7.50113
9614 962 1 9.78259 -4.99888 -8.94369
9615 962 1 10.2365 -4.86382 -7.83764
3199 320 2 -9.47982 -3.93291 -8.44315
203 21 1 -9.64561 -3.11196 -7.77395
3644 365 1 -7.84777 -4.20714 -7.92154
5262 527 1 -8.15105 -3.85597 -8.63341
1415 142 1 -8.73274 -3.33597 -8.54083
3643 365 1 -8.05929 -3.19643 -8.0189
2337 234 2 -6.55207 -4.27865 -8.8686
2338 234 2 -6.61488 -4.32383 -7.71553
1412 142 1 -7.27332 -3.36456 -8.41816
3040 304 2 -5.94253 -3.40327 -8.24811
8662 867 1 -5.18707 -3.92731 -8.71801
2683 269 1 -5.10011 -4.26659 -7.843
5494 550 1 -4.63919 -3.68743 -7.73805
8056 806 2 -4.02776 -3.93955 -8.5104
2511 252 1 -3.81577 -4.21394 -7.53412
2566 257 2 -3.64038 -3.13985 -7.9967
182 19 1 -3.07639 -3.71175 -8.74568
1234 124 1 -2.61772 -4.39406 -8.8456
9281 929 1 -2.3343 -3.5902 -8.49601
9282 929 1 -1.28196 -3.1082 -8.84763
9283 929 1 -1.82126 -4.18034 -8.40551
5502 551 1 -1.03859 -3.57675 -8.05919
6792 680 1 -0.619105 -4.12168 -7.7131
6796 680 2 0.0646636 -3.3057 -8.86783
4891 490 1 0.194478 -4.1385 -7.88762
6500 650 2 0.148973 -3.13599 -7.49728
5965 597 1 0.974587 -4.07896 -8.2315
5966 597 2 1.89587 -4.07702 -8.41121
6498 650 2 1.80308 -3.4361 -7.71747
5968 597 2 3.46619 -3.97554 -7.6411
8018 802 2 2.53538 -3.58407 -7.81637
7988 799 2 4.56573 -4.4472 -8.78469
5969 597 2 4.27906 -3.612 -8.62632
8019 802 2 3.81311 -4.13832 -8.32908
372 38 1 4.6961 -3.89863 -7.52571
8017 802 2 3.51354 -3.20585 -8.33255
6287 629 2 6.10172 -4.14029 -8.9167
5022 503 1 5.46633 -3.92779 -7.63148
5024 503 1 6.10806 -3.29458 -7.88155
5021 503 1 6.82263 -3.82997 -8.25874
9839 984 2 7.5498 -3.72333 -7.80344
7385 739 1 6.78228 -3.11925 -7.62263
6696 670 2 8.74547 -3.83935 -8.26771
9837 984 2 7.8801 -3.19566 -8.4378
7388 739 2 8.2541 -3.24253 -7.80429
8128 813 2 9.22968 -4.33745 -7.67133
3197 320 2 9.59668 -3.93231 -8.5702
6697 670 2 10.437 -3.86874 -8.28007
8127 813 2 10.0705 -3.64682 -7.62518
6695 670 1 9.29429 -2.99028 -7.84418
6699 670 2 -10.3414 -1.91494 -8.18453
7652 766 1 -9.46967 -2.12181 -7.6114
207 21 2 -10.4466 -2.94885 -8.28263
5406 541 2 -8.52135 -1.55093 -8.80678
3642 365 1 -8.96771 -2.51212 -8.14352
5599 560 2 -8.06982 -1.90557 -7.5328
5660 566 2 -8.07694 -2.20332 -8.37957
1419 142 2 -7.21994 -2.21436 -8.0176
3039 304 2 -6.64147 -2.8427 -7.90268
8113 812 1 -5.38332 -2.15866 -8.83268
1951 196 1 -6.08732 -2.07207 -8.38733
9366 937 2 -5.6811 -2.80615 -7.62018
8114 812 1 -6.11761 -2.0745 -7.4799
9365 937 1 -5.28856 -1.72923 -7.99648
2682 269 1 -5.00797 -2.96654 -8.63869
1960 196 2 -3.98672 -2.97903 -8.95625
339 34 2 -3.60272 -1.81557 -8.85988
1841 185 1 -4.81191 -1.69037 -8.83627
1842 185 1 -4.50647 -2.33569 -7.97256
2567 257 2 -3.7646 -1.62779 -8.20979
183 19 1 -2.83489 -2.69042 -8.78595
5504 551 1 -2.35491 -1.59029 -8.79905
9095 910 1 -2.44487 -2.71092 -7.92388
6793 680 1 -0.760011 -2.72264 -8.40289
5503 551 1 -1.61161 -2.33205 -8.25235
9094 910 1 -1.47417 -1.5327 -7.98617
8479 848 2 -0.384943 -1.83733 -8.28015
8437 844 2 0.124452 -2.5676 -8.11786
6496 650 2 1.97847 -2.10826 -8.89348
6499 650 2 1.00806 -2.36303 -8.51218
8439 844 2 0.883917 -2.90905 -7.88179
6495 650 1 1.20734 -1.75311 -7.7938
8440 844 2 1.7437 -2.79924 -8.494
8016 802 2 3.12957 -2.24648 -8.72009
6497 650 2 2.65737 -2.77126 -8.39418
8015 802 1 2.12044 -1.92813 -7.90421
353 36 1 2.95332 -1.8594 -7.78954
352 36 1 4.20732 -2.2425 -8.29562
8431 844 1 3.70606 -2.27654 -7.6119
5023 503 1 4.71761 -2.95017 -7.71263
4135 414 1 5.47987 -1.91872 -8.02551
7384 739 1 6.13033 -2.70213 -8.52313
373 38 1 5.26501 -2.82645 -8.37504
950 95 2 6.06779 -1.57286 -8.66247
7386 739 2 6.92664 -1.76024 -8.16948
3950 395 2 7.40493 -2.3878 -8.37834
7387 739 2 8.19263 -2.13994 -8.25977
5408 541 2 10.1758 -2.05533 -8.8098
6595 660 1 9.30981 -2.53382 -8.56889
6694 670 1 9.28829 -1.91896 -8.00205
2185 219 1 -9.97056 -1.00617 -8.9288
2189 219 2 -9.33378 -0.153036 -8.29061
5405 541 1 -9.3366 -1.36435 -8.1358
7653 766 1 -9.97431 -0.932813 -7.80237
5403 541 1 -10.3036 -0.569837 -8.41704
3641 365 1 -8.65099 -1.00273 -8.06238
3222 323 1 -8.17833 -0.46624 -7.90228
3221 323 1 -7.34729 -1.22447 -8.21925
3224 323 1 -7.3907 -0.125233 -7.90516
4319 432 2 -6.53671 -0.295463 -8.66468
6199 620 2 -6.45843 -0.819578 -7.79062
6200 620 2 -5.39602 -0.71503 -8.3682
1848 185 2 -4.98967 -0.0710109 -7.61361
1843 185 1 -4.48057 -0.941865 -8.89855
1849 185 2 -3.78771 -0.94269 -7.61414
1195 120 1 -3.60183 -0.299339 -8.49042
1847 185 2 -4.62702 -0.878834 -8.04795
340 34 2 -2.85027 -1.36162 -7.87725
1196 120 2 -2.50923 -0.585021 -7.61571
1193 120 1 -2.64574 -0.0556049 -8.39848
5506 551 2 -0.810129 -0.210809 -8.73957
5505 551 1 -1.54291 -0.784357 -8.50754
3462 347 1 -0.709866 -0.893277 -8.03513
2103 211 1 0.0890486 -0.731471 -8.69364
9093 910 1 0.0756605 -1.14606 -7.77372
3463 347 1 0.681168 -0.42451 -7.97822
3461 347 1 0.733458 -1.29482 -8.45967
2105 211 1 1.5995 -0.987799 -8.27805
8013 802 1 3.20539 -0.488048 -8.85503
2101 211 1 2.3401 -1.18668 -8.34253
8014 802 1 3.09389 -0.720183 -8.08128
1611 162 1 3.50296 -1.3585 -8.39581
5368 537 2 4.16672 -1.09353 -7.6644
4134 414 1 4.82106 -1.42693 -8.66972
4040 404 2 4.78443 -0.61128 -8.21607
5367 537 2 4.05962 -0.297254 -8.48416
4133 414 1 5.88164 -0.413856 -8.29005
375 38 1 5.80534 -1.08753 -7.65
8624 863 1 7.17893 -0.56258 -7.62677
8621 863 1 7.79281 -0.45584 -8.43066
3949 395 2 7.9492 -1.28021 -7.50089
8625 863 1 8.39916 -0.0980585 -8.08315
6596 660 2 8.76028 -1.1951 -8.45601
6597 660 2 9.49255 -0.409758 -8.84079
6598 660 2 9.30934 -0.424176 -7.7673
7648 765 2 -10.296 -9.52583 -7.22455
9566 957 2 -9.83068 -10.2775 -7.22026
7644 765 1 -10.0637 -9.55116 -6.21058
6352 636 1 -9.60747 -10.2843 -6.1873
7645 765 1 -9.26081 -9.51968 -6.76375
2168 217 2 -8.12755 -9.62347 -6.53563
1889 189 2 -8.62108 -10.2594 -6.6377
1807 181 2 -7.72738 -9.11506 -6.94524
5722 573 1 -6.47389 -9.66768 -7.35492
8026 803 2 -7.18154 -9.31141 -6.53014
8028 803 2 -6.92544 -9.98908 -6.51769
8277 828 2 -5.82294 -10.0679 -6.8103
1896 190 2 -5.01039 -9.78607 -6.24958
8278 828 2 -4.79498 -10.1101 -7.15445
4652 466 1 -3.60322 -9.80821 -6.6973
4790 479 2 -2.92193 -9.09852 -7.20944
4000 400 2 -2.3971 -9.62539 -6.90768
4788 479 2 -2.16563 -10.0246 -6.26604
3999 400 2 -1.4597 -10.3346 -6.98964
4789 479 2 -1.65367 -9.18764 -7.2491
2444 245 1 -0.946843 -9.63134 -6.05882
3658 366 2 -0.424288 -10.2078 -7.09211
3654 366 1 -0.0120543 -10.0586 -6.21666
71 8 1 -0.173388 -9.34966 -6.5989
74 8 1 0.405326 -9.67541 -7.02975
4466 447 2 1.10556 -10.2689 -7.19953
4464 447 1 0.897272 -9.17211 -7.27362
5678 568 2 1.38937 -9.83516 -6.52153
4160 416 2 2.00877 -9.3084 -6.2645
4465 447 1 2.36636 -10.1688 -7.15207
5679 568 2 2.69304 -9.51313 -6.15888
1789 179 2 3.29693 -9.40848 -6.7995
1790 179 2 4.24085 -10.4514 -6.92324
1787 179 2 3.59407 -10.0768 -6.24692
5675 568 1 4.40124 -8.99671 -6.3319
1785 179 1 4.88945 -9.61163 -6.44012
9051 906 1 5.34397 -10.2455 -7.06939
8367 837 2 6.15058 -9.85027 -7.05335
1071 108 1 7.23393 -9.75905 -7.4563
7581 759 1 6.43729 -9.00155 -6.77585
3179 318 2 6.91873 -10.2969 -6.39258
25 3 1 7.42844 -9.17442 -6.7811
4043 405 1 8.63078 -9.53155 -6.77404
1073 108 1 8.02781 -9.58446 -5.99881
1072 108 1 8.03395 -10.1823 -6.80194
21 3 1 9.66012 -9.06231 -7.13222
2999 300 2 9.56133 -10.2178 -6.50174
22 3 1 9.51844 -9.04898 -6.15342
8023 803 1 -9.53833 -8.62562 -7.08121
8022 803 1 -9.80606 -7.59404 -6.30033
7649 765 2 -10.2545 -8.56562 -6.27391
1806 181 2 -8.4111 -8.44848 -7.34856
5663 567 1 -7.77783 -7.88045 -6.97597
1890 189 2 -8.57029 -8.8456 -6.37148
8025 803 1 -7.73081 -8.19383 -6.08909
8024 803 1 -8.67698 -7.52899 -6.47309
8027 803 2 -6.84993 -8.56866 -7.13823
4322 433 1 -7.01034 -7.47018 -6.20729
6142 615 1 -6.69408 -8.27798 -6.17944
6006 601 2 -6.25081 -7.93953 -7.37508
6141 615 1 -5.76705 -8.87329 -6.66667
9536 954 2 -5.44507 -7.98128 -6.9296
6007 601 2 -5.83335 -7.58334 -6.24671
1900 190 2 -5.26118 -8.04971 -6.00662
9535 954 1 -4.85166 -8.78034 -6.97868
4653 466 1 -3.98184 -8.87441 -6.52443
7518 752 2 -4.54193 -7.62432 -6.54423
2450 245 2 -2.67653 -7.74603 -7.024
9854 986 1 -3.23924 -8.50228 -6.23285
2441 245 1 -2.39656 -8.61458 -6.42592
9855 986 1 -2.47182 -7.81744 -6.04674
3617 362 2 -1.81538 -7.69622 -7.34852
2446 245 2 -1.06004 -8.59504 -7.45983
3653 366 1 -0.924505 -8.955 -6.04196
2443 245 1 -0.716188 -8.4126 -6.54773
2442 245 1 -1.48524 -7.51503 -6.0732
2445 245 1 -1.5814 -8.53773 -6.14006
4879 488 2 0.0794151 -7.74607 -7.23561
3652 366 1 0.248004 -8.54046 -6.73512
9860 986 2 1.30507 -8.68898 -6.06467
5260 526 2 1.01759 -7.63704 -6.16826
4147 415 2 1.19849 -7.70014 -6.84149
5677 568 2 2.57439 -8.86086 -7.15775
1870 187 2 2.21738 -8.01936 -7.29306
5253 526 1 2.77713 -7.72152 -6.56352
4142 415 1 2.186 -8.23038 -6.36248
2414 242 1 3.29958 -8.50234 -6.36481
770 77 2 4.4192 -8.47467 -7.37924
5676 568 2 3.60628 -8.11153 -7.22459
5252 526 1 3.95697 -8.14685 -6.04013
767 77 2 4.87424 -8.12141 -6.81443
1781 179 1 5.15726 -8.8398 -6.17986
5674 568 1 5.42869 -8.92882 -7.13255