ITEM: TIMESTEP
0
ITEM: NUMBER OF ATOMS
10000
ITEM: BOX BOUNDS pp pp pp
-1.0705427002233662e+01 1.0705427002233662e+01
-1.0705427002233662e+01 1.0705427002233662e+01
-1.0705427002233662e+01 1.0705427002233662e+01
ITEM: ATOMS id mol type x y z
4544 455 1 -9.52236 -10.5403 -10.4929
2427 243 2 -10.4779 -10.0617 -10.2781
3418 342 2 -10.0796 -10.2081 -9.65191
3854 386 1 -9.61885 -9.58857 -10.1167
4545 455 1 -9.1439 -9.92023 -9.63123
9793 980 1 -8.06697 -9.96855 -9.77769
3853 386 1 -8.71301 -10.626 -10.4388
9794 980 1 -7.2005 -10.3658 -9.90651
9795 980 1 -6.90583 -9.5578 -10.0421
8345 835 1 -6.02547 -10.0853 -10.5641
9797 980 2 -6.05014 -10.3705 -9.47887
767 77 2 -4.31741 -9.4535 -10.456
8346 835 2 -5.27678 -10.0221 -9.99154
4554 456 1 -2.9535 -10.6097 -10.3453
9836 984 2 -3.51439 -9.51556 -10.359
766 77 2 -2.96127 -9.43584 -9.85305
4328 433 2 -1.93323 -9.43904 -9.72411
765 77 1 -2.3403 -10.0243 -10.6269
4834 484 1 -0.357066 -9.57992 -10.6881
3123 313 1 -0.266689 -9.50192 -9.62604
3127 313 2 -1.08958 -10.115 -10.1791
3126 313 2 0.256659 -10.6201 -10.4477
3122 313 1 1.14404 -9.54255 -9.36887
4835 484 1 1.04205 -9.80608 -10.3219
3121 313 1 2.03479 -9.5997 -10.1509
6659 666 2 1.99335 -10.1348 -9.36918
1390 139 2 3.02988 -9.43876 -10.3523
6439 644 2 2.86058 -10.4388 -10.2134
1386 139 2 3.76336 -9.58957 -10.0738
1491 150 1 5.28923 -9.47923 -10.2492
918 92 2 5.16983 -10.4693 -9.80951
3332 334 1 6.18434 -9.65368 -10.657
7528 753 2 5.69275 -10.0706 -9.46191
282 29 1 5.9445 -10.642 -10.2133
4496 450 2 6.97985 -10.0146 -9.98009
7529 753 2 6.79513 -9.61875 -9.39816
3336 334 2 7.82246 -10.4802 -9.8165
4753 476 1 9.25961 -9.75897 -10.05
3338 334 2 8.04173 -10.1534 -10.5623
3420 342 2 9.93133 -10.556 -9.99676
3855 386 1 -10.4602 -8.92079 -10.4996
4365 437 1 -9.56473 -8.97609 -10.6082
9684 969 1 -9.76325 -8.07792 -10.3601
9688 969 2 -9.08754 -8.11137 -9.83133
9683 969 1 -8.7503 -9.11578 -10.1501
4366 437 2 -8.63748 -8.18033 -10.629
9792 980 1 -7.76766 -8.76179 -9.87824
2211 222 1 -6.62293 -8.71969 -9.7553
9839 984 2 -5.73367 -9.2375 -10.2343
9799 980 2 -4.96213 -9.16452 -10.0414
9838 984 2 -4.72664 -8.29088 -9.95221
9645 965 1 -3.08964 -8.08105 -10.2744
9643 965 1 -3.41934 -8.53673 -9.7708
4327 433 2 -2.64012 -9.02744 -10.7044
3129 313 2 -2.24296 -8.64889 -9.47404
8650 865 2 -1.29966 -8.20151 -10.1831
4833 484 1 -0.285064 -8.54207 -9.93148
3128 313 2 -1.17504 -9.11058 -10.0287
3615 362 1 1.04624 -8.36211 -10.3931
3614 362 1 0.275762 -9.2284 -10.1792
3185 319 1 1.46115 -9.11089 -10.6558
3186 319 2 2.34627 -8.17335 -10.5914
3184 319 1 1.47331 -8.65559 -9.75011
6660 666 2 2.93733 -9.25838 -9.55748
2730 273 2 4.59998 -8.73455 -9.80044
5331 534 1 5.91906 -8.09942 -9.43182
7981 799 1 6.30216 -8.96351 -9.87096
1382 139 1 5.44899 -8.61963 -10.5521
3333 334 1 7.72234 -9.264 -10.1291
402 41 1 8.67097 -8.88666 -9.92796
3856 386 2 10.2676 -8.786 -9.53487
3857 386 2 9.51414 -8.35229 -9.86197
9687 969 2 -9.48103 -6.88652 -10.2773
889 89 2 -10.4842 -6.72751 -9.90662
887 89 2 -10.5748 -7.54863 -10.3654
4367 437 2 -8.67619 -7.04362 -9.82009
9791 980 1 -7.48369 -7.51392 -9.49026
7715 772 1 -7.35357 -7.93675 -10.1885
201 21 1 -7.64815 -7.29071 -10.7003
2214 222 1 -6.44808 -7.60338 -9.48038
2212 222 1 -5.66481 -7.84544 -9.56522
7717 772 2 -6.52895 -7.59665 -10.6181
9800 980 2 -5.58703 -7.90324 -10.6904
6309 631 2 -4.33149 -7.48485 -9.55576
6310 631 2 -5.35122 -7.08166 -10.3378
2418 242 2 -4.13685 -7.43089 -10.6311
9644 965 1 -3.26758 -7.1011 -9.56129
2508 251 2 -1.98107 -7.80107 -9.86165
2507 251 2 -2.56473 -7.14379 -10.3436
8060 806 2 -1.49805 -7.40916 -9.4384
8056 806 2 -1.71834 -6.73541 -10.0357
2506 251 2 -1.07461 -7.06102 -10.4492
2509 251 2 -0.52391 -7.57975 -9.88966
8051 806 1 -0.015804 -6.87 -10.4233
1745 175 1 0.698261 -7.33505 -10.6113
3616 362 2 1.14447 -7.63985 -9.70037
4831 484 1 0.273506 -7.98739 -10.3253
3189 319 2 1.76543 -7.4274 -10.2733
3190 319 2 1.67072 -6.70269 -9.45386
8095 810 1 2.64119 -8.02096 -9.44363
9053 906 1 3.01438 -7.08696 -9.93576
9055 906 1 3.25115 -7.94776 -10.3349
9054 906 1 4.27181 -6.94881 -10.2669
2729 273 2 4.17152 -7.73312 -9.56819
1725 173 1 5.42487 -7.51838 -9.89715
8139 814 2 6.14507 -7.34931 -10.5323
4390 439 2 6.32179 -6.83842 -9.57548
4389 439 2 6.9276 -7.97664 -10.0957
1726 173 2 6.91389 -7.25936 -9.84062
7136 714 2 7.85751 -7.71173 -10.0525
4387 439 2 8.87961 -7.66106 -10.1246
7137 714 2 8.13994 -6.81919 -9.85972
4756 476 2 10.0538 -7.66092 -10.1431
890 89 2 -10.1331 -5.62003 -10.5946
2333 234 1 -10.3321 -5.66419 -9.51251
1050 105 2 -8.33502 -5.45735 -9.50269
4369 437 2 -9.25432 -5.98596 -10.5728
4370 437 2 -8.50848 -6.2113 -9.40519
4105 411 1 -6.83174 -5.64045 -9.64779
4368 437 2 -7.88874 -6.41298 -9.84859
7711 772 1 -7.37071 -6.40948 -10.6424
3513 352 1 -7.53882 -5.64732 -10.5255
7159 716 2 -5.86589 -5.98777 -9.94919
7716 772 2 -6.39662 -6.65678 -10.3637
3583 359 1 -4.31616 -6.26479 -9.67886
9305 931 1 -4.79298 -5.71622 -10.3537
9303 931 1 -3.3688 -6.15925 -9.69472
834 84 1 -2.27468 -5.75624 -10.0961
8055 806 1 -1.28077 -5.65398 -9.90139
8053 806 1 -0.350137 -5.99867 -10.0216
1744 175 1 -0.0260918 -6.46098 -9.64353
8052 806 1 0.881539 -6.17497 -9.50863
1743 175 1 0.581072 -5.6975 -10.1686
1741 175 1 1.05966 -6.54951 -10.3827
9058 906 2 2.16469 -6.68539 -10.4217
3522 353 1 1.37776 -5.70388 -10.2421
9052 906 1 2.85855 -5.60306 -10.2669
4174 418 1 2.80194 -6.39645 -9.58588
4176 418 2 3.82103 -6.31712 -9.71542
1510 151 2 4.15998 -5.4645 -9.47181
1723 173 1 5.27963 -6.61883 -9.74182
2727 273 2 4.1422 -5.67163 -10.4501
3272 328 1 5.15493 -5.67829 -9.75655
1727 173 2 6.2848 -6.19654 -10.1137
4180 418 2 6.05855 -5.48753 -9.68371
4253 426 1 7.48187 -5.46784 -10.5487
4381 439 1 7.33057 -6.06375 -9.8161
4251 426 1 7.22197 -6.51876 -10.5838
2365 237 1 9.18957 -6.52903 -9.79458
7132 714 1 8.10439 -5.67981 -9.87633
4910 491 2 8.58049 -6.2255 -10.4724
7131 714 1 9.18143 -5.48332 -10.203
885 89 1 10.0397 -6.50005 -10.4978
9404 941 1 10.236 -5.48941 -9.65829
7968 797 2 -9.50643 -4.10827 -9.5604
2334 234 1 -10.2956 -4.72678 -10.2149
2332 234 1 -9.22027 -5.08629 -9.69209
2354 236 1 -8.33808 -4.04856 -10.0282
2351 236 1 -8.28449 -5.07353 -10.6198
4104 411 1 -7.24587 -4.52876 -10.2355
2357 236 2 -6.05792 -5.03506 -9.99183
7157 716 2 -5.80033 -4.23636 -10.2797
3584 359 1 -4.88061 -4.88807 -10.2574
5003 501 1 -4.64832 -4.12945 -10.0664
1478 148 2 -3.07941 -4.57377 -9.68708
5633 564 1 -3.91748 -4.06279 -9.46861
3586 359 2 -3.69053 -5.03812 -10.4972
2420 242 2 -3.80382 -5.26592 -9.6103
5473 548 1 -1.69398 -4.16096 -10.211
835 84 1 -1.54712 -4.85862 -10.4407
4036 404 2 -1.27024 -4.23002 -9.39836
4037 404 2 -0.670759 -4.7494 -9.96722
3620 362 2 0.0766969 -4.81999 -9.82744
9338 934 2 0.71272 -4.30307 -9.60985
7677 768 2 0.508857 -4.05156 -10.3361
9335 934 1 0.964673 -5.3453 -9.59254
7676 768 2 1.23609 -4.1188 -10.653
9333 934 1 1.11712 -4.98182 -10.7018
4530 453 2 1.85341 -4.11826 -9.96306
9340 934 2 1.79252 -4.86898 -9.68254
7041 705 1 3.91586 -4.16107 -9.3692
2723 273 1 2.8315 -4.58151 -10.0805
2726 273 2 4.19495 -4.60227 -10.1806
3271 328 1 5.11172 -4.192 -9.95552
9161 917 1 5.96847 -4.40583 -10.6184
3273 328 1 5.35307 -4.82053 -10.5402
8137 814 2 6.77736 -4.91176 -10.0844
2370 237 2 7.68581 -4.6141 -10.0481
2369 237 2 9.03665 -4.75494 -9.54996
8739 874 2 8.77585 -4.36078 -10.2045
2362 237 1 9.84965 -4.44148 -10.1529
884 89 1 10.0353 -5.01631 -10.6871
2339 234 2 -9.45983 -2.96561 -9.59609
2340 234 2 -10.0781 -3.3273 -9.85621
2353 236 1 -8.84187 -2.81222 -10.4124
2352 236 1 -8.97679 -3.96848 -10.4809
4103 411 1 -7.7743 -3.6164 -9.51774
5926 593 2 -7.00528 -3.03746 -9.43247
4979 498 2 -7.47225 -3.28741 -10.2463
2355 236 1 -6.88082 -3.85463 -10.6905
5927 593 2 -6.31697 -4.01332 -9.75965
5925 593 1 -6.63219 -2.98773 -10.6661
7155 716 1 -6.07277 -2.89751 -9.79219
7156 716 2 -4.92041 -3.13898 -9.57535
5004 501 1 -3.245 -3.97306 -10.5102
7152 716 1 -3.88268 -3.3034 -9.8881
9309 931 2 -2.85215 -3.01693 -10.2219
836 84 2 -2.43503 -3.86982 -9.64097
1462 147 1 -1.79321 -3.21431 -10.2745
1750 175 2 -0.852517 -3.80689 -10.3302
3079 308 2 -0.015028 -3.87525 -9.65161
8909 891 2 -0.662418 -3.12034 -9.55527
6545 655 1 0.48446 -2.99982 -10.5313
6544 655 1 0.873753 -3.30946 -9.50028
7675 768 1 1.30513 -3.19918 -10.0704
5310 531 2 2.54169 -3.59488 -9.56911
2721 273 1 1.96237 -3.00322 -10.1652
2722 273 1 2.73783 -3.55606 -10.6886
7043 705 1 3.38291 -3.0448 -9.70842
3278 328 2 4.62139 -2.86471 -10.1845
3280 328 2 4.34788 -3.67435 -10.3632
7049 705 2 5.22353 -2.99613 -9.42438
8735 874 1 6.6408 -3.6991 -9.91559
3274 328 1 5.8807 -3.58009 -10.4073
3828 383 2 7.5454 -3.22206 -10.2159
8736 874 2 7.20384 -3.89499 -10.7042
8740 874 2 8.40288 -3.50371 -10.3816
8738 874 2 9.0869 -2.86846 -10.1658
2336 234 2 9.61789 -3.41357 -10.5888
2335 234 1 10.1742 -3.60892 -9.7604
433 44 1 -9.38771 -2.21963 -10.6433
5865 587 1 -10.4022 -1.79823 -10.3518
2338 234 2 -10.631 -2.43688 -9.65678
1365 137 1 -9.15087 -1.38112 -10.2798
1366 137 2 -9.10598 -2.02828 -9.38677
3148 315 2 -8.2684 -1.94515 -9.83325
3350 335 2 -7.52148 -2.44045 -9.76489
5968 597 2 -6.97384 -1.87439 -9.52519
5967 597 2 -5.83355 -1.80949 -10.6267
5924 593 1 -5.7737 -2.03135 -9.64668
6584 659 1 -5.4904 -1.35433 -9.72228
5635 564 1 -4.32381 -2.36529 -9.78721
7154 716 1 -4.89866 -2.12937 -10.4355
1480 148 2 -3.16696 -1.81898 -9.69372
5621 563 1 -2.23067 -2.28522 -10.3317
8907 891 2 -0.863088 -2.46947 -9.86368
8902 891 1 -1.2996 -1.55489 -10.2558
3077 308 2 0.981549 -1.92915 -9.56619
8910 891 2 0.236322 -2.20394 -9.77147
5625 563 1 0.130906 -1.55197 -10.4244
6546 655 2 1.21599 -2.06588 -10.4924
7673 768 1 2.47842 -2.33578 -10.1531
7672 768 1 3.73176 -2.18219 -9.71383
4232 424 1 3.96951 -1.98318 -10.6843
7046 705 2 4.90104 -1.36379 -9.66905
7050 705 2 5.06792 -2.11739 -10.1403
3277 328 2 5.89194 -2.48436 -9.84184
7048 705 2 6.49287 -2.45104 -10.2758
7047 705 2 6.10773 -1.75793 -10.3697
4019 402 2 7.13232 -1.74929 -10.5843
5846 585 2 7.05295 -2.04792 -9.74476
8737 874 2 7.80977 -2.61264 -9.96202
3827 383 2 8.46439 -2.49484 -9.50511
3824 383 1 8.20224 -1.38174 -9.76936
5841 585 1 8.93938 -1.58014 -9.91412
3825 383 1 8.88836 -1.66741 -10.6529
3826 383 2 9.64525 -2.42664 -10.2685
2399 240 2 10.0177 -1.86889 -9.74389
2396 240 2 -10.6976 -0.317507 -10.4452
9766 977 2 -9.87805 -0.63453 -9.67952
3149 315 2 -8.66502 -0.936483 -9.36897
1368 137 2 -8.1825 -0.210107 -9.70988
1363 137 1 -8.92406 -0.517749 -10.477
1364 137 1 -7.84779 -1.21363 -10.3193
1369 137 2 -6.9816 -0.14628 -9.98073
5966 597 2 -6.68875 -1.06921 -10.1285
5965 597 1 -6.2131 -0.744066 -9.49717
6681 669 1 -5.71494 -0.435597 -10.1739
6682 669 1 -4.51003 -1.10617 -10.5544
6583 659 1 -4.65337 -0.341502 -10.0996
7642 765 1 -2.89647 -0.577947 -9.40273
5636 564 2 -3.94251 -1.26478 -9.49328
6685 669 1 -3.61242 -0.474978 -10.2399
8903 891 1 -2.24443 -1.17226 -9.7235
3908 391 2 -1.78787 -0.729324 -10.355
3906 391 2 -2.12346 -0.102606 -9.77699
3905 391 1 -0.847038 -1.01103 -9.52378
9412 942 1 -0.0646908 -0.822052 -9.8167
9241 925 1 -0.688742 -0.425446 -9.94935
9411 942 1 0.523116 -0.0722524 -10.5058
5794 580 1 0.616511 -0.870868 -10.2738
7313 732 1 1.21706 -1.01552 -9.53983
1542 155 1 2.47916 -0.625718 -10.0171
5792 580 1 1.51286 -0.516837 -10.4345
7544 755 1 2.18846 -0.0562606 -10.4092
309 31 2 3.5944 -0.193466 -10.6191
841 85 1 3.37929 -0.351269 -9.60776
307 31 2 3.18351 -1.21567 -10.2983
7671 768 1 4.02999 -1.12167 -9.50888
5768 577 2 5.11918 -0.376203 -9.82737
306 31 2 4.47971 -0.661574 -10.5551
305 31 1 5.6814 -0.881235 -10.3086
302 31 1 6.98535 -0.150401 -10.2786
5847 585 2 7.23311 -0.795354 -9.37685
3823 383 1 7.81007 -0.00340445 -10.5395
5823 583 1 9.2755 -0.928991 -9.47997
5830 583 2 9.21713 -0.381439 -10.288
1218 122 2 8.56567 -0.186617 -9.57623
5842 585 1 8.12761 -0.698247 -10.4703
5822 583 1 9.81123 -0.0722582 -9.43218
2397 240 2 9.74656 -1.04749 -10.4752
2398 240 2 10.6979 -0.764577 -9.77669
3416 342 2 -10.6953 -9.81043 -8.46131
2430 243 2 -9.77583 -10.4112 -8.5349
2426 243 2 -10.0435 -9.53246 -8.94713
9682 969 1 -8.88424 -9.48836 -9.00202
7272 728 1 -8.14693 -10.1869 -8.19669
3049 305 2 -8.65401 -10.6974 -9.01013
3043 305 1 -7.55502 -10.3421 -9.02761
7839 784 2 -7.47983 -9.45241 -8.21358
9840 984 2 -6.29005 -10.0134 -8.76356
5683 569 1 -4.68461 -10.0017 -9.12975
5101 511 1 -5.13706 -10.0752 -8.39184
4776 478 2 -3.01912 -9.56999 -8.71548
4553 456 1 -2.98097 -10.4327 -9.23033
4556 456 2 -3.9676 -10.2621 -8.31028
5993 600 1 -1.93352 -9.76023 -8.13662
4777 478 2 -1.98643 -10.2112 -9.32497
3124 313 1 -1.08298 -10.1255 -8.71397
5991 600 1 -0.646526 -9.58385 -8.11372
2709 271 2 -0.223229 -10.4654 -8.12174
3612 362 1 -0.743589 -10.201 -9.32228
4837 484 2 0.296437 -10.1433 -8.73422
8097 810 2 2.44659 -10.1081 -8.27454
4839 484 2 1.60584 -10.3275 -8.45321
3183 319 1 1.37197 -9.37911 -8.52027
7414 742 1 3.63927 -9.74205 -8.69499
6658 666 2 2.96807 -10.1827 -9.1366
7413 742 1 4.52817 -10.1481 -9.28343
6605 661 1 5.05832 -10.2673 -8.33843
9364 937 1 4.11089 -10.0462 -8.07108
7527 753 2 5.98373 -9.88515 -8.92631
4495 450 1 7.87662 -9.45749 -9.28427
3335 334 1 7.34305 -10.0477 -8.76307
3334 334 1 8.70106 -9.99281 -9.27541
5336 534 2 8.40189 -9.99345 -8.08585
405 41 1 9.53807 -10.0228 -8.03968
4752 476 1 9.4394 -10.5472 -8.74181
2425 243 1 10.4475 -10.6798 -8.87905
3417 342 2 10.5274 -9.86173 -9.3167
404 41 1 9.91925 -9.39268 -8.94178
9685 969 1 -10.3968 -8.18215 -9.16666
4546 455 2 -9.50708 -8.68158 -9.32324
9689 969 2 -9.15733 -8.3911 -8.45446
6416 642 2 -8.33091 -8.72395 -8.0917
9681 969 1 -8.12519 -8.16911 -8.83891
7271 728 1 -7.93283 -9.25687 -9.26063
7840 784 2 -6.84388 -9.30109 -8.7673
6415 642 1 -7.34817 -8.29665 -9.04982
6414 642 1 -6.20605 -8.22889 -8.56645
7838 784 2 -5.77641 -9.02043 -8.39975
9796 980 2 -5.84595 -9.26658 -9.35777
4773 478 1 -4.72189 -9.02057 -9.10461
6308 631 2 -4.90524 -8.38 -8.53988
4772 478 1 -3.80368 -8.81866 -8.1672
9642 965 1 -3.9103 -9.29789 -9.06638
9641 965 1 -3.90416 -8.18479 -8.82114
9646 965 2 -2.75766 -8.83257 -8.89714
9647 965 2 -1.52912 -8.48849 -9.02789
3613 362 1 -0.379133 -8.61956 -9.02739
3611 362 1 -1.21395 -9.27071 -8.56349
9212 922 1 -0.195565 -8.14401 -8.37866
4836 484 2 0.454689 -9.27156 -8.83944
9650 965 2 1.03985 -8.49265 -9.02035
8096 810 2 2.30582 -9.19853 -8.94108
628 63 2 2.27108 -8.37823 -8.59114
8094 810 1 3.23279 -8.11079 -8.19003
9361 937 1 3.4991 -8.52082 -9.18442
627 63 2 2.98042 -9.15604 -8.2201
9362 937 1 4.00586 -9.29282 -8.12629
625 63 1 3.84187 -8.37535 -8.31681
7411 742 1 5.26529 -9.1377 -9.03275
7412 742 1 4.16866 -9.12148 -9.01324
5619 562 2 4.80046 -8.09715 -9.02893
9363 937 1 5.15331 -9.33496 -8.09878
9366 937 2 5.00803 -8.08774 -8.19637
9365 937 1 4.55961 -8.94321 -8.35309
7526 753 2 6.17379 -8.83636 -8.71329
5332 534 1 7.43431 -8.66895 -9.28546
7530 753 2 7.05335 -8.97084 -8.14785
9368 937 2 6.97134 -8.25047 -8.04969
4494 450 1 9.04161 -9.29563 -9.04424
5333 534 1 8.60089 -8.31588 -9.30641
7523 753 1 8.1877 -8.14942 -8.47626
403 41 1 9.263 -8.37942 -8.57022
5335 534 1 8.22684 -9.0193 -8.75757
4493 450 1 9.82267 -9.0506 -8.10254
4491 450 1 10.6138 -8.50241 -8.29082
9686 969 2 -10.0909 -7.33881 -9.16025
6790 679 2 -10.0144 -6.89138 -8.09688
3977 398 2 -10.3108 -7.64492 -8.09828
4547 455 2 -9.25232 -7.51287 -9.10202
2218 222 2 -8.3271 -7.09393 -8.78413
4549 455 2 -9.17653 -7.73925 -8.08316
2216 222 2 -7.24305 -7.36595 -8.25693
2213 222 1 -6.20789 -6.80683 -8.70781
3582 359 1 -5.35648 -7.09506 -9.22189
6413 642 1 -5.34712 -7.28164 -8.47589
4771 478 1 -3.10594 -7.63676 -9.01118
9302 931 1 -3.56403 -6.71132 -8.76274
840 84 2 -2.35744 -6.85271 -9.25309
3130 313 2 -1.90367 -7.98561 -8.22912
8059 806 2 -2.5881 -6.98515 -8.2731
9648 965 2 -0.534746 -7.27915 -8.92
9649 965 2 0.447195 -7.15926 -9.07901
9214 922 1 0.730273 -7.73364 -8.09665
2510 251 2 0.284868 -7.97417 -9.31207
3530 353 2 2.18288 -6.83712 -8.32539
5617 562 2 2.55373 -7.29808 -8.78328
629 63 2 1.76582 -7.61517 -9.31475
630 63 2 1.71401 -7.78648 -8.35116
5618 562 2 3.69408 -7.35735 -8.87576
4178 418 2 4.96663 -7.15375 -9.07322
7420 742 2 4.38436 -7.41935 -8.36034
1724 173 1 5.8561 -7.52458 -8.8205
7525 753 1 6.73144 -7.58892 -8.72135
7134 714 1 7.02944 -6.81026 -8.03937
4382 439 1 7.29819 -7.00086 -8.7826
5334 534 1 7.59393 -7.85856 -9.01658
3858 386 2 8.92198 -7.28426 -8.96849
3979 398 2 9.30916 -6.86153 -8.12983
4386 439 2 10.0962 -7.12555 -9.345
3859 386 2 10.3771 -7.13896 -8.41963
3980 398 2 9.90207 -7.84575 -9.18921
6785 679 1 -9.56037 -6.0943 -8.9745
6787 679 2 -10.4658 -5.64429 -8.33864
4548 455 2 -9.0804 -6.66896 -8.08456
2219 222 2 -7.69192 -6.6785 -8.72471
1049 105 2 -7.89559 -5.90618 -8.40434
4107 411 2 -7.05148 -5.90379 -8.33361
2215 222 1 -6.94269 -6.54567 -9.29197
4106 411 2 -5.62176 -5.96742 -9.14783
4110 411 2 -5.98786 -5.42462 -8.51737
9304 931 1 -4.68574 -5.73143 -9.20569
3581 359 1 -4.39098 -6.48191 -8.67743
6665 667 1 -5.34254 -6.19085 -8.29899
839 84 2 -3.17027 -5.82066 -8.55766
1476 148 2 -3.9682 -5.37943 -8.34865
8057 806 2 -2.3463 -5.98255 -8.88714
8054 806 1 -1.25666 -6.3542 -9.13805
3618 362 2 -0.110019 -6.66461 -8.28496
3619 362 2 -0.411909 -5.42747 -8.96146
3617 362 2 1.29519 -6.57509 -8.81592
9336 934 2 0.487546 -6.00207 -8.25788
3523 353 1 0.337199 -5.7571 -9.22758
3529 353 2 2.16332 -5.72506 -8.99879
4173 418 1 3.29743 -6.09191 -8.52384
4177 418 2 4.91468 -5.93319 -8.69284
2728 273 2 4.22027 -6.61126 -9.06727
8983 899 1 4.20428 -5.71377 -8.22715
8136 814 2 6.10947 -5.51644 -8.69031
4179 418 2 5.96852 -6.37076 -8.83643
4383 439 1 7.11566 -5.71103 -8.62062
7133 714 1 6.8899 -6.31851 -9.21653
4384 439 1 8.53854 -5.90188 -8.42319
7135 714 1 8.03139 -6.5961 -8.85678
2366 237 2 8.91321 -5.39767 -8.96635
4385 439 1 9.61087 -6.28217 -8.7244
886 89 2 10.5747 -6.66428 -9.2743
9403 941 1 9.8489 -5.35653 -8.35482
3341 335 1 -9.38757 -4.92919 -8.76592
9405 941 1 -10.566 -4.10579 -9.23643
2331 234 1 -8.03069 -4.50511 -9.35368
2220 222 2 -7.89467 -5.09415 -8.40636
4109 411 2 -7.13507 -4.98191 -9.06428
7964 797 1 -7.01601 -4.19328 -8.07366
2358 236 2 -6.46055 -4.33259 -9.17641
7158 716 2 -5.75385 -4.98001 -9.28701
2359 236 2 -5.81037 -4.19772 -8.70021
4108 411 2 -6.43766 -4.90112 -8.50593
7151 716 1 -4.75423 -4.48635 -9.2624
1474 148 1 -4.74119 -4.16103 -8.45071
6664 667 1 -4.7503 -5.0991 -8.71036
5002 501 1 -4.00204 -4.38115 -8.63711
837 84 2 -3.35253 -5.02387 -8.83503
1477 148 2 -2.73674 -5.08821 -8.18577
838 84 2 -2.23081 -4.64358 -9.14327
4034 404 1 -1.54656 -4.4523 -8.21987
4038 404 2 -1.43752 -5.15078 -9.07353
4035 404 1 -0.720411 -4.47339 -8.34352
3524 353 1 -0.182426 -5.34767 -8.06243
3080 308 2 0.734219 -4.74947 -8.66762
7678 768 2 0.00710275 -4.13472 -8.88897
3528 353 2 1.94149 -4.52298 -9.01206
9339 934 2 1.60661 -4.84085 -8.25414
9337 934 2 1.46325 -5.35204 -8.78323
4172 418 1 3.82802 -4.81199 -8.50273
7042 705 1 3.36117 -4.38394 -9.14807
6542 655 1 2.72292 -4.51339 -8.44061
2724 273 1 3.26324 -5.29407 -9.08349
3071 308 1 3.35034 -5.12569 -8.19743
2725 273 1 4.7082 -5.15462 -8.74117
4171 418 1 4.76595 -4.1708 -9.28681
3920 392 2 5.57925 -4.70936 -8.90569
8135 814 1 6.13625 -4.15175 -8.07264
2367 237 2 7.88918 -4.90656 -9.18931
3237 324 2 6.81261 -4.8663 -8.98776
3238 324 2 7.75921 -4.22595 -8.44314
2368 237 2 8.77303 -4.56638 -8.4328
9409 941 2 10.6351 -4.9671 -8.86081
9406 941 2 9.79096 -4.3868 -8.97823
9410 941 2 10.0884 -4.17945 -8.06464
7969 797 2 -10.1743 -3.9966 -8.1313
3344 335 1 -9.75073 -3.10427 -8.49929
7967 797 2 -8.78807 -3.59768 -9.07011
3147 315 2 -8.30853 -2.78242 -9.10879
7965 797 1 -7.99417 -3.56167 -8.34872
4102 411 1 -7.26559 -3.74067 -8.78225
3146 315 2 -7.12077 -2.70436 -8.04523
5928 593 2 -6.30909 -3.34199 -8.5019
5929 593 2 -5.23288 -3.6356 -9.14157
2360 236 2 -5.27521 -3.15767 -8.46369
5634 564 1 -4.0374 -3.10957 -8.7554
5632 564 1 -3.38043 -3.38512 -8.85694
1475 148 1 -3.21336 -3.98735 -8.40788
9310 931 2 -1.91106 -2.7652 -9.31722
5631 564 1 -2.04418 -3.765 -8.45479
1479 148 2 -2.62233 -3.02768 -9.18873
7679 768 2 -0.0264602 -3.26822 -8.03995
4039 404 2 -1.11972 -3.32899 -8.86535
3078 308 2 0.185694 -2.84053 -9.00833
2581 259 1 1.15769 -3.84341 -8.71122
5309 531 2 2.37293 -2.78228 -9.17324
3072 308 1 2.52883 -3.6124 -8.31691
6543 655 1 1.76263 -3.4358 -8.50853
3918 392 2 3.58955 -3.66957 -8.15113
9209 921 2 4.57375 -3.79195 -8.49155
3279 328 2 4.11003 -3.21629 -9.02382
9207 921 2 5.29441 -3.78932 -8.41498
9208 921 2 5.84656 -3.84399 -9.1692
8133 814 1 6.27773 -2.98651 -8.80576
8134 814 1 6.98031 -3.67561 -9.21819
5021 503 1 7.8215 -3.43172 -9.15965
3236 324 2 7.06019 -3.65022 -8.31298
5022 503 1 8.9039 -3.25965 -8.12255
5024 503 1 8.60815 -3.49989 -9.05289
5025 503 1 8.16571 -3.00642 -8.4685
9407 941 2 10.6515 -3.35344 -8.34099
2361 237 1 9.51676 -3.38919 -9.34968
5703 571 1 9.64703 -3.21661 -8.15116
3150 315 2 -9.76915 -1.43804 -9.2017
9761 977 1 -9.80051 -2.28631 -8.51256
3345 335 1 -8.76798 -2.4552 -8.31851
9763 977 1 -8.78804 -1.74271 -8.19351
5969 597 2 -6.7436 -1.5593 -8.47051
5970 597 2 -7.49841 -2.65716 -8.87401
1367 137 2 -7.93822 -1.533 -9.0233
3349 335 2 -6.55442 -2.33076 -8.79786
5930 593 2 -5.38078 -2.41662 -8.68785
7645 765 1 -4.37705 -1.92235 -8.61073
5637 564 2 -3.13194 -2.33945 -9.19508
5799 580 2 -1.65462 -2.38463 -8.37858
5800 580 2 -2.53967 -2.49947 -8.31034
8905 891 1 -2.04315 -1.61149 -9.2803
7641 765 1 -2.66478 -1.44796 -8.50863
8908 891 2 -0.679385 -2.40886 -8.56354
8906 891 2 -1.1985 -2.03761 -9.13218
5626 563 2 -0.147468 -1.93247 -9.07904
3904 391 1 -0.0422483 -1.83778 -8.13558
6547 655 2 1.30304 -2.40105 -9.06762
5627 563 2 0.795986 -2.36973 -8.19884
3916 392 2 1.97613 -1.67951 -9.16654
3076 308 2 1.95152 -2.27657 -8.62053
6549 655 2 2.54719 -1.6717 -8.30748
5308 531 2 3.06454 -1.606 -9.14952
6550 655 2 3.72399 -2.15125 -8.30365
3917 392 2 2.95263 -2.53757 -8.67971
7044 705 1 4.43523 -2.19189 -9.19025
8132 814 1 4.91992 -2.51265 -8.33834
1982 199 1 6.22997 -1.49457 -9.26076
1984 199 1 5.41273 -2.22557 -8.84595
3829 383 2 7.16414 -2.53449 -8.90327
5828 583 2 7.6298 -1.63658 -8.94521
5000 500 2 7.26725 -2.07254 -8.04756
5827 583 2 8.99121 -2.27642 -8.55621
5026 503 2 9.04402 -1.41582 -8.3408
2400 240 2 10.516 -2.30887 -8.51529
2337 234 2 9.90212 -2.61504 -9.08288
5962 597 1 -9.95258 -0.318048 -8.52754
9765 977 1 -9.42368 -0.172677 -9.18606
7104 711 1 -10.2162 -1.23013 -8.13773
5821 583 1 -10.7021 -0.699117 -8.60268
5963 597 1 -8.77876 -1.01317 -8.41804
5964 597 1 -7.57565 -0.535393 -8.60923
4873 488 1 -6.72794 -0.210442 -8.92942
5923 593 1 -5.7568 -1.08598 -8.93846
8419 842 2 -5.72228 -0.0537712 -8.47954
8420 842 2 -4.67223 -0.816808 -9.11429
6585 659 1 -5.15382 -1.28214 -8.48962
6586 659 2 -4.5971 -0.0716804 -8.67575
7643 765 1 -3.68053 -1.26535 -8.37025
6589 659 2 -3.84781 -0.274715 -8.94379
6587 659 2 -3.3436 -0.235789 -8.27708
8904 891 1 -2.2635 -0.709731 -8.62649
3671 368 1 -1.60512 -0.91604 -9.16222
3672 368 1 -1.93213 -0.0498019 -8.42201
5798 580 2 -0.897852 -1.1645 -8.37723
5796 580 2 -0.915888 -0.336847 -8.54722
3676 368 2 -0.201899 -0.165939 -8.81135
5795 580 1 0.0696818 -1.21298 -8.78776
3903 391 1 0.71421 -0.782458 -8.26824
7314 732 1 1.56809 -0.583016 -8.94306
7311 732 1 1.93265 -0.63238 -8.3236
5307 531 2 3.46848 -1.10574 -8.19588
3915 392 1 2.77675 -0.52681 -8.81757
3914 392 1 3.50125 -0.054997 -8.75362
2496 250 2 4.18339 -0.428805 -8.05102
7045 705 1 4.61338 -1.26325 -8.48403
842 85 1 4.32414 -0.498246 -9.08224
5766 577 2 4.97999 -0.235085 -8.15052
949 95 2 6.34615 -0.336969 -8.19712
950 95 2 6.54489 -0.291197 -9.06535
5765 577 1 5.36179 -1.24385 -8.81788
5764 577 1 6.49307 -1.32853 -8.11472
5030 503 2 5.61275 -0.154924 -8.7753
5028 503 2 7.48977 -0.711375 -8.51397
5829 583 2 8.4537 -0.793197 -8.93763
5824 583 1 9.14314 -0.0784158 -8.15092
5848 585 2 8.12296 -1.25162 -8.11123
1051 106 1 9.8243 -0.415569 -8.72601
7103 711 1 10.1877 -1.33322 -8.70449
5339 534 2 -10.4659 -10.2525 -7.78686
2678 268 2 -10.4852 -9.41115 -7.3632
5443 545 1 -9.48467 -10.6319 -7.22036
5444 545 1 -8.32979 -10.3188 -7.36003
2401 241 1 -9.0191 -9.91683 -8.00072
3041 305 1 -7.69414 -10.6273 -7.13881
1287 129 2 -7.15407 -9.70383 -6.78627
5445 545 1 -7.2781 -10.5958 -7.93274
5102 511 1 -6.42126 -10.4649 -7.81588
6670 667 2 -6.36792 -9.68084 -6.8341
5104 511 1 -5.81983 -10.0828 -7.76536
9032 904 1 -4.10732 -9.55057 -6.69584
4774 478 1 -4.10231 -9.44675 -7.4283
8472 848 1 -5.02191 -10.1017 -7.09064
4775 478 1 -3.10444 -9.50337 -7.6016
4557 456 2 -3.52724 -10.4504 -7.73052
4558 456 2 -2.85042 -10.3033 -7.19617
5994 600 1 -1.92568 -9.60086 -7.16866
621 63 1 -0.0729785 -10.4421 -6.91034
5992 600 1 -1.25979 -10.6415 -7.75275
5996 600 2 -0.83358 -9.84977 -7.21102
1245 125 1 1.2418 -9.68771 -7.43664
3182 319 1 1.02222 -10.3344 -7.66337
622 63 1 0.386177 -9.78455 -7.80649
1243 125 1 1.74889 -10.6433 -7.43422
3181 319 1 2.12049 -9.81414 -7.12672
9176 918 2 3.1566 -10.0867 -7.47459
9175 918 1 2.68827 -10.2632 -6.72432
6656 666 2 3.74335 -10.5873 -7.24952
7415 742 1 4.67009 -9.3776 -7.55765
125 13 1 4.95936 -10.0427 -7.10063
287 29 2 5.78703 -9.68461 -6.76926
920 92 2 6.16591 -9.84312 -8.00989
286 29 2 5.95022 -10.4922 -7.58455
1842 185 1 7.05243 -9.60423 -7.01238
285 29 1 6.99023 -10.4857 -7.24284
1841 185 1 7.21478 -10.1972 -8.0105
8087 809 2 9.1018 -9.45452 -6.71881
406 41 2 8.51107 -9.86612 -7.1807
9370 937 2 8.08017 -10.2655 -6.77785
2677 268 2 9.86853 -9.97709 -6.88778
8084 809 1 -10.237 -8.48228 -7.67223
4492 450 1 -9.76238 -9.19159 -7.95403
2402 241 1 -9.47774 -8.7991 -7.11771
9690 969 2 -8.5584 -8.69295 -7.36649
1285 129 1 -7.51504 -8.39175 -6.76319
1286 129 2 -7.92925 -9.29963 -7.12015
1284 129 1 -7.16438 -8.28414 -7.94102
1283 129 1 -6.57594 -8.84495 -7.43123
6412 642 1 -5.82409 -8.0802 -7.38272
6411 642 1 -6.67497 -8.38335 -6.72219
6669 667 2 -5.52866 -9.04571 -7.1359
7837 784 2 -4.8522 -8.73702 -7.69985
6307 631 2 -4.19886 -8.26754 -7.42395
4559 456 2 -2.76907 -8.79917 -6.82382
2720 272 2 -2.55724 -8.73336 -7.80358
6305 631 1 -1.67381 -8.42587 -6.96454
5995 600 1 -1.21921 -8.79197 -7.84433
1250 125 2 -0.697344 -8.26555 -7.06547
9211 922 1 -0.178107 -8.96195 -8.02528
1246 125 2 -0.0825906 -9.06485 -7.07678
9213 922 1 0.976595 -8.91096 -7.90825
5998 600 2 0.687125 -9.20428 -6.8006
4313 432 1 0.515118 -8.3817 -7.42911
623 63 1 1.8683 -9.03196 -7.97758
9173 918 1 1.42857 -8.2859 -7.08875
624 63 1 2.53132 -8.14958 -7.5218
9174 918 1 2.17891 -9.06767 -7.31139
7416 742 2 3.43964 -9.33039 -7.11363
626 63 2 3.97984 -8.60894 -7.29432
7419 742 2 4.86415 -8.42784 -7.23078
9367 937 2 6.15665 -8.38073 -7.87995
5889 589 2 5.96586 -9.07045 -7.5403
9369 937 2 7.78665 -9.30773 -7.80715
5890 589 2 6.73582 -8.17374 -6.76492
5337 534 2 8.66719 -8.75075 -7.23073
5338 534 2 9.94157 -9.11191 -7.03482
408 41 2 9.43555 -8.31536 -7.34001
4550 455 2 -9.39276 -6.92709 -6.85835
3976 398 2 -9.79321 -7.66479 -6.87724
6417 642 2 -9.03331 -7.81353 -7.26428
2217 222 2 -8.43434 -7.50817 -7.84726
2404 241 1 -8.19105 -7.3692 -6.69991
1282 129 1 -7.7012 -7.70514 -7.3498
2405 241 1 -6.76897 -7.54366 -6.91954
4851 486 1 -6.30814 -7.58641 -7.64889
6666 667 2 -5.4064 -6.79911 -7.08807
6668 667 2 -4.97449 -7.69787 -7.23062
6667 667 2 -4.5823 -7.42163 -7.80168
6306 631 2 -2.84048 -7.81818 -7.85261
9301 931 1 -3.42145 -6.82786 -7.68011
2719 272 2 -3.11387 -8.00431 -7.01406
2718 272 2 -2.34358 -7.23639 -7.2032
4312 432 1 -0.118814 -7.46049 -7.51786
4031 404 1 -1.0703 -7.55659 -8.01149
9172 918 1 0.590412 -7.25756 -6.81362
4314 432 1 0.947298 -6.85587 -7.83134
5616 562 2 2.32977 -7.14733 -7.44502
9215 922 1 1.47538 -7.4597 -7.08412
8093 810 1 3.21376 -6.86449 -7.99612
5615 562 1 3.55682 -7.70907 -7.33812
5546 555 2 3.11167 -6.99352 -6.78963
5620 562 2 4.52345 -7.91252 -7.69481
5613 562 1 5.11189 -6.93358 -6.8045
8984 899 1 5.06878 -6.69861 -7.93974
8981 899 1 6.28257 -6.7869 -7.53642
5611 562 1 5.73626 -7.43919 -7.93465
5612 562 1 5.84552 -7.92216 -6.99285
7524 753 1 7.84888 -7.15716 -7.89046
7522 753 1 8.00308 -7.94024 -7.35032
4898 490 2 7.48506 -6.81723 -6.90814
4897 490 2 7.07197 -7.36467 -7.33219
3860 386 2 9.18387 -7.487 -7.79825
4891 490 1 8.61705 -7.07794 -7.15168
3978 398 2 9.95757 -7.8536 -7.97955
8083 809 1 10.5209 -7.34257 -6.92613
6789 679 2 -10.2113 -6.31135 -6.72441
6786 679 2 -9.96422 -5.97871 -7.41494
3401 341 1 -8.79121 -5.88946 -6.81259
1281 129 1 -8.08602 -6.62802 -6.94117
6784 679 1 -9.04844 -5.42961 -7.97183
6783 679 1 -8.10521 -6.30239 -7.6355
6781 679 1 -7.25944 -6.54544 -7.40202
6662 667 1 -6.64676 -5.54495 -6.95173
2739 274 2 -5.57712 -6.05313 -6.76241
6661 667 1 -6.14696 -6.44561 -7.70858
6663 667 1 -5.53818 -5.4839 -7.77346
706 71 2 -4.74864 -6.04947 -6.75268
2740 274 2 -4.47823 -5.8152 -7.68672
2738 274 2 -4.5658 -6.61212 -7.25652
701 71 1 -2.96235 -6.44676 -6.72447
5423 543 1 -3.27926 -5.82889 -7.30388
8058 806 2 -2.30327 -5.89813 -7.52625
5430 543 2 -2.07521 -6.51201 -7.95835
4033 404 1 -0.867963 -5.53616 -8.02151
4032 404 1 -1.18105 -6.3762 -7.15913
4311 432 1 0.323609 -6.54634 -7.09218
6034 604 1 0.80275 -5.57833 -7.28713
8091 810 1 1.56758 -6.164 -7.68787
9217 922 2 2.54807 -6.45189 -7.1336
6032 604 1 1.81361 -5.52074 -7.26747
9218 922 2 3.27704 -6.04717 -7.04473
8092 810 1 2.83214 -5.77009 -7.98473
8985 899 1 4.38546 -5.55104 -7.18627
8982 899 1 4.91157 -6.15931 -7.27839
5614 562 1 4.16117 -6.64439 -7.61558
8988 899 2 6.28549 -5.62634 -7.88798
8987 899 2 5.83057 -5.7098 -7.03207
4899 490 2 6.67155 -5.54068 -6.88503
4900 490 2 7.49033 -6.0091 -7.53948
8989 899 2 7.12422 -6.06239 -6.77074
8990 899 2 8.2685 -6.18021 -7.42969
1989 199 2 8.05159 -5.544 -6.79504
4892 490 1 9.23199 -5.78535 -7.76623
8081 809 1 10.3522 -6.2604 -7.5746
4893 490 1 9.40058 -6.62497 -7.02073
183 19 1 10.1279 -5.42599 -7.09935
184 19 1 -10.5413 -4.27519 -7.15737
6788 679 2 -10.2796 -5.08984 -7.2602
3342 335 1 -9.36055 -4.56893 -7.39287
1048 105 2 -8.11042 -5.18795 -7.24632
3410 341 2 -8.72074 -4.09631 -7.97208
3403 341 1 -6.78897 -4.54489 -6.915
3409 341 2 -7.71554 -4.05068 -7.23129
6782 679 1 -7.14957 -5.33049 -7.5262
7963 797 1 -6.04553 -4.80763 -7.28929
5001 501 1 -5.39466 -4.51133 -7.95044