ITEM: TIMESTEP
9900000
ITEM: NUMBER OF ATOMS
10000
ITEM: BOX BOUNDS pp pp pp
-9.9906424506720501e+00 9.9906424506720501e+00
-9.9906424506720501e+00 9.9906424506720501e+00
-9.9906424506720501e+00 9.9906424506720501e+00
ITEM: ATOMS id mol type x y z
1299 130 2 -9.77084 -8.79179 -9.24649
7158 716 2 -9.26499 -8.71322 -8.57359
1298 130 2 -9.87895 -9.96261 -8.92341
7159 716 2 -9.54155 -9.52308 -9.55544
2831 284 1 -8.46638 -8.61718 -9.45476
1692 170 1 -8.48301 -9.39893 -9.49402
7326 733 2 -7.29432 -8.74766 -9.27613
4630 463 2 -7.49193 -9.54381 -9.26996
9202 921 1 -6.46348 -9.60929 -8.79435
1574 158 1 -6.19187 -8.9338 -9.26838
1577 158 2 -5.52475 -9.89243 -9.32091
8267 827 2 -5.14808 -9.16256 -8.89128
4110 411 2 -4.89504 -8.73129 -9.57975
8265 827 1 -4.15781 -9.44433 -9.09425
2641 265 1 -3.86772 -8.67907 -9.38402
7163 717 1 -4.17921 -9.53773 -9.9467
2976 298 2 -3.19103 -9.75866 -8.88362
4270 427 2 -2.92457 -9.10138 -9.49399
2337 234 2 -2.80193 -8.78705 -8.61137
2894 290 1 -1.81086 -9.30562 -9.10363
5014 502 1 -1.90231 -9.26167 -9.8618
5520 552 2 -0.770506 -9.34248 -8.98978
191 20 1 -0.146966 -9.97834 -9.20061
3939 394 2 -0.775832 -9.05078 -9.97095
4802 481 1 0.25836 -8.58743 -8.9857
7712 772 1 0.349898 -9.11215 -9.51672
4708 471 2 1.16127 -9.68697 -9.76627
2077 208 2 1.50701 -9.039 -9.22758
4823 483 1 2.46895 -9.48335 -8.57494
4991 500 1 2.8089 -8.59759 -9.19734
2434 244 1 2.40467 -9.52248 -9.47704
1321 133 1 2.69928 -8.8306 -9.88659
7568 757 2 3.64862 -9.24375 -9.39404
2437 244 2 3.99264 -8.7094 -8.71173
2109 211 2 3.46086 -9.25839 -8.60707
2108 211 2 3.46458 -9.91023 -9.87928
484 49 1 4.53259 -9.69578 -8.79534
8511 852 1 4.72319 -9.02067 -9.67075
7561 757 1 4.91386 -9.02548 -8.60059
4688 469 2 5.68202 -9.6119 -9.73628
3529 353 2 5.74883 -9.35985 -8.97885
8973 898 1 6.80505 -9.78608 -9.71206
6913 692 1 6.88913 -9.09049 -9.04928
529 53 2 8.25704 -9.11018 -9.48546
8974 898 1 7.26441 -8.73949 -9.62109
9778 978 2 8.03187 -9.66409 -9.06819
2469 247 2 8.45743 -8.8561 -8.83666
5222 523 1 9.13365 -9.64146 -8.95339
2141 215 1 9.24116 -9.10014 -9.54856
7157 716 2 -9.1811 -8.13408 -9.59934
9838 984 2 -8.96004 -7.32555 -9.06656
6103 611 1 -9.97789 -7.47295 -8.92536
9831 984 1 -8.19508 -8.46938 -8.62144
7325 733 1 -7.89785 -7.79229 -9.16524
9833 984 1 -7.65273 -7.22119 -9.8769
6695 670 1 -8.03114 -8.18975 -9.98429
8876 888 2 -6.86884 -8.02376 -9.30039
8875 888 1 -5.9343 -8.2987 -9.52447
4754 476 1 -5.68789 -7.28358 -9.36098
8268 827 2 -4.86263 -7.79489 -9.18163
9786 979 2 -4.29543 -7.20574 -9.01109
9876 988 2 -4.36249 -7.26616 -9.91933
1315 132 1 -3.78729 -8.10956 -8.70765
7161 717 1 -3.5308 -7.88636 -9.468
2851 286 1 -1.59916 -8.39897 -9.4835
2338 234 2 -2.42139 -7.45688 -8.57837
88 9 2 -2.54377 -8.01275 -9.18309
2857 286 2 -2.59655 -8.18667 -9.93358
5519 552 2 -0.359552 -8.42716 -9.9679
5517 552 2 -0.0756815 -7.51327 -9.80229
5016 502 2 -0.555083 -8.03658 -9.1201
9133 914 1 -1.40686 -7.43747 -9.37502
4042 405 1 0.782301 -7.92364 -9.13941
4805 481 1 1.2705 -7.38317 -8.91419
4801 481 1 0.745966 -8.04006 -9.866
2129 213 2 1.59195 -8.49312 -8.72911
2078 208 2 1.88468 -7.95653 -9.58894
4807 481 2 2.30685 -7.73686 -8.73474
4806 481 2 2.25047 -7.34995 -9.97197
5424 543 1 3.20811 -7.73959 -9.35824
7569 757 2 3.99482 -8.25883 -9.56488
9507 951 2 4.25661 -7.70261 -8.90491
8699 870 2 4.43082 -7.78155 -9.91033
5212 522 1 5.00884 -8.41579 -9.22529
5214 522 1 5.38944 -7.96168 -8.696
31 4 1 5.39619 -7.87681 -9.79643
4689 469 2 6.01942 -8.51742 -9.39943
3526 353 2 6.48601 -7.81382 -9.96359
4686 469 2 6.4402 -8.12176 -8.85126
4690 469 2 6.63158 -7.45489 -9.13639
6912 692 1 7.55677 -7.83775 -9.27537
6083 609 1 7.84505 -7.24404 -9.09267
9777 978 2 8.51179 -8.09121 -8.71854
5223 523 1 9.42034 -8.46504 -8.76867
9776 978 2 8.95086 -7.21751 -9.3917
528 53 2 8.65115 -7.91967 -9.61991
3221 323 1 9.63094 -7.96903 -9.64008
2160 216 2 -8.68259 -6.79265 -9.86015
3222 323 1 -9.89387 -6.80198 -9.61823
3225 323 1 -9.39986 -5.73463 -9.51584
6104 611 1 -9.55155 -6.2644 -8.9903
3226 323 2 -8.34124 -5.84463 -9.94774
7324 733 1 -7.32077 -6.56814 -8.90484
9837 984 2 -8.2407 -6.51088 -9.22123
9834 984 1 -7.31483 -6.08995 -9.44764
8029 803 2 -6.6699 -7.09618 -9.25875
4756 476 2 -6.24767 -6.35307 -9.62359
4750 475 2 -6.18203 -6.3067 -8.65225
4752 476 1 -5.19982 -6.58576 -9.21977
4755 476 1 -5.12444 -6.1243 -9.78901
9875 988 1 -3.27319 -7.05953 -8.85499
9785 979 1 -3.3088 -6.86358 -9.93528
570 57 2 -4.09371 -6.4528 -8.83224
2238 224 2 -4.15837 -6.29644 -9.7693
5852 586 1 -3.11262 -6.22086 -9.19167
2856 286 2 -2.2833 -6.98691 -9.57131
2339 234 2 -1.90616 -6.29499 -9.16439
7063 707 1 -0.999885 -7.0205 -8.6718
9132 914 1 -0.770583 -6.3741 -9.18387
9231 924 1 -0.90459 -6.44728 -9.99015
9287 929 2 0.0990491 -7.10176 -8.98279
4041 405 1 1.05662 -6.98513 -9.6354
7216 722 2 0.343548 -6.50027 -8.64232
9286 929 2 0.687514 -5.8337 -9.03644
6829 683 2 0.276012 -6.2593 -9.51931
2079 208 2 2.3811 -6.8679 -9.29442
9285 929 1 1.57492 -5.83312 -9.96922
9282 929 1 1.47556 -6.42029 -8.87529
2080 208 2 2.61765 -5.86106 -9.699
7211 722 1 1.72264 -5.85949 -9.3335
4808 481 2 2.6088 -6.38827 -8.80366
1325 133 1 3.52637 -6.99435 -9.75785
5425 543 1 3.59039 -7.11507 -8.69772
5423 543 1 3.50649 -6.4368 -9.05962
1324 133 1 3.56335 -6.08705 -9.87248
9215 922 1 3.90047 -5.93833 -8.72239
7570 757 2 4.51201 -7.00349 -9.58691
9508 951 2 4.73001 -6.16461 -9.36167
5211 522 1 5.50222 -7.12469 -8.96982
3481 349 1 5.92586 -5.9292 -8.89241
32 4 1 5.86172 -6.45414 -9.59321
5217 522 2 6.82353 -6.6259 -9.02943
1927 193 2 6.75449 -6.45669 -9.87082
4681 469 1 7.79042 -6.75666 -9.65601
2201 221 1 8.2313 -6.42653 -9.08735
9775 978 1 8.47983 -6.05525 -9.85045
3787 379 2 9.22526 -6.43383 -9.26004
991 100 1 -9.24838 -5.25105 -8.64481
3173 318 1 -9.14421 -4.89865 -9.45374
2159 216 2 -8.34597 -5.50384 -9.0024
3178 318 2 -7.19641 -4.57515 -9.85778
3179 318 2 -7.99626 -4.79321 -8.85432
7322 733 1 -7.10035 -5.34795 -9.02564
8028 803 2 -6.01369 -5.41462 -9.26171
8027 803 2 -5.77533 -4.39621 -8.84131
4757 476 2 -6.21443 -4.89859 -9.65015
2723 273 1 -5.03134 -5.65297 -9.03437
2234 224 1 -4.99782 -4.88447 -9.63395
3371 338 1 -4.72658 -4.83621 -8.89222
9739 974 2 -3.97122 -5.59073 -9.29712
6037 604 2 -3.74024 -4.68888 -9.94344
5380 538 2 -3.57061 -4.91241 -8.94609
1491 150 1 -2.65132 -5.65536 -9.53705
1494 150 1 -2.15007 -4.48445 -9.00825
913 92 1 -1.6927 -4.9503 -9.67269
82 9 1 -2.6192 -4.94285 -9.46345
9140 914 2 -1.09534 -5.03913 -8.8809
221 23 1 -0.620093 -5.54745 -9.50887
9233 924 1 -0.072619 -5.12021 -9.00982
6760 676 2 -0.8756 -4.43109 -9.33396
6822 683 1 1.30705 -4.87651 -9.77891
222 23 1 0.588199 -4.6989 -9.29841
7213 722 1 1.66045 -5.14349 -8.99629
9218 922 2 2.84661 -5.27106 -9.06604
1120 112 2 2.49789 -4.8215 -9.76144
9213 922 1 4.26205 -5.05326 -8.79698
9214 922 1 3.53433 -5.30378 -9.71457
6779 678 2 3.12225 -4.37528 -9.21769
2711 272 1 4.18673 -4.64234 -9.40518
339 34 2 5.21639 -5.50533 -9.4426
337 34 2 5.36588 -5.18009 -8.69031
7948 795 2 5.42852 -4.54461 -9.25449
1254 126 1 6.41854 -5.36504 -9.45243
214 22 1 6.8703 -4.36548 -9.36388
1929 193 2 8.01979 -5.13853 -9.73732
1928 193 2 7.30894 -5.60737 -8.9457
5218 522 2 7.4821 -5.66578 -9.87278
2926 293 2 7.85301 -4.96237 -8.87993
6085 609 1 8.64149 -5.68338 -9.1459
6087 609 2 9.53749 -5.42352 -9.34693
9774 978 1 8.78342 -4.68521 -9.22212
8529 853 2 9.87293 -4.74237 -9.84556
375 38 1 -8.81649 -4.21346 -9.00354
2658 266 2 -9.3874 -3.63391 -9.80702
5206 521 2 -9.91585 -4.28121 -9.23127
5207 521 2 -9.70082 -3.13556 -9.20634
3174 318 1 -8.40315 -4.06929 -9.76037
4760 476 2 -7.6126 -3.74938 -9.09628
374 38 1 -8.50665 -3.17969 -9.14668
5309 531 2 -7.2843 -3.03564 -9.54439
5462 547 1 -6.701 -3.9924 -9.01923
2232 224 1 -6.2779 -3.75768 -9.8789
833 84 1 -6.32971 -3.20266 -9.14522
969 97 2 -5.22923 -3.59816 -9.05491
5461 547 1 -5.61271 -4.25885 -9.9442
2766 277 2 -4.90984 -3.01443 -9.61535
6035 604 1 -4.05417 -4.01388 -9.24446
6036 604 2 -3.01712 -3.96304 -9.2963
2765 277 1 -4.08822 -3.09064 -9.22628
1496 150 2 -2.94343 -3.27104 -8.60646
467 47 2 -2.91207 -2.97123 -9.3202
912 92 1 -1.90253 -3.61035 -9.19814
81 9 1 -1.76028 -4.09809 -9.93069
9139 914 2 -0.861181 -3.69544 -9.44529
227 23 2 -0.870365 -3.53811 -8.67099
556 56 2 1.05796 -4.11541 -8.59193
9234 924 1 0.185771 -3.73895 -8.91314
9237 924 2 1.10428 -3.3034 -8.69854
7881 789 1 0.346203 -3.08296 -9.42968
1119 112 2 1.51695 -4.0624 -9.35785
2713 272 1 2.6664 -3.34327 -9.16342
3956 396 2 1.74252 -3.17545 -9.02693
4900 490 2 3.84128 -3.72532 -8.9556
4897 490 2 3.99921 -3.53347 -9.84762
1114 112 1 3.0117 -3.20778 -9.85624
332 34 1 4.6583 -4.04792 -8.69495
335 34 1 4.85739 -4.0345 -9.84457
6602 661 1 4.89909 -3.33284 -9.13441
2741 275 1 5.135 -3.19164 -9.9497
336 34 2 5.74452 -4.07267 -8.72582
7947 795 2 6.01062 -3.35843 -9.51971
340 34 2 6.0334 -4.17008 -9.83018
8251 826 1 6.92678 -3.57392 -9.04823
4562 457 1 7.10599 -3.38553 -9.90051
3758 376 2 5.98576 -3.30984 -8.79716
1269 127 2 8.1207 -3.71111 -9.19174
4570 457 2 7.61444 -4.01361 -8.58376
3429 343 2 8.23407 -2.86565 -9.26485
5205 521 1 9.00067 -4.15635 -8.77431
5201 521 1 9.24364 -3.81549 -9.42812
5202 521 1 9.30125 -2.87663 -9.11038
2211 222 1 9.4669 -3.29732 -9.91317
5208 521 2 -9.34554 -2.03283 -9.04724
2657 266 2 -9.85393 -2.59587 -8.7322
9940 994 2 -9.2394 -1.94132 -9.84328
2654 266 1 -8.43943 -2.45644 -8.88769
837 84 2 -7.26295 -2.59122 -8.98212
5301 531 1 -8.07288 -2.22719 -9.46793
2152 216 1 -8.30386 -1.62551 -8.64259
5308 531 2 -7.03212 -1.82019 -9.69572
831 84 1 -6.14121 -2.42835 -8.85644
8661 867 1 -6.11384 -2.2462 -9.65642
8900 890 2 -5.03204 -2.40847 -8.96025
8664 867 1 -5.6459 -1.69289 -9.92686
8627 863 2 -4.76998 -1.63091 -9.42818
1161 117 1 -3.8714 -2.20657 -9.16996
104 11 1 -3.7675 -2.67536 -9.87418
544 55 1 -3.20914 -1.70563 -9.89113
549 55 2 -2.7626 -2.47695 -8.61393
466 47 2 -2.43952 -1.75077 -9.03257
911 92 1 -1.72135 -2.311 -8.66123
916 92 2 -2.47768 -2.33379 -9.67605
464 47 1 -1.61836 -2.71486 -9.46485
228 23 2 -0.58671 -2.58684 -9.31045
5089 509 2 -0.342383 -1.76184 -8.94192
463 47 1 -0.849112 -1.74739 -9.80455
465 47 1 -1.40415 -1.59687 -8.95284
3952 396 1 0.668373 -2.46605 -8.94811
2965 297 1 0.970633 -1.95367 -9.39999
229 23 2 0.0745091 -1.79377 -9.75922
9238 924 2 1.83491 -2.31588 -9.05173
1113 112 1 2.82837 -2.4835 -9.57891
3957 396 2 2.03065 -1.87916 -9.62015
4894 490 1 2.87481 -2.45923 -8.84594
4899 490 2 3.75059 -2.18254 -8.5779
4896 490 2 3.86298 -2.1094 -9.67887
2717 272 2 4.00009 -2.8205 -9.31676
2715 272 1 3.00844 -1.65595 -9.05166
4895 490 1 3.12849 -1.60558 -9.9004
2716 272 2 4.09607 -1.5857 -8.99497
334 34 1 4.9665 -2.43658 -9.44629
3754 376 1 5.0229 -1.59358 -9.95095
7762 777 1 5.09248 -1.59352 -8.98117
987 99 2 6.15398 -1.70879 -9.16486
9677 968 2 5.77606 -2.49797 -8.86255
3759 376 2 6.19747 -2.4353 -9.67354
985 99 1 7.07348 -2.70985 -8.73209
8792 880 1 7.12355 -1.95986 -8.8025
8253 826 1 7.22498 -2.46015 -9.65418
4568 457 2 8.26099 -2.12751 -8.86018
4131 414 1 7.47557 -1.66352 -9.84845
3428 343 2 8.52415 -1.46936 -9.53007
2621 263 1 9.43628 -1.91258 -9.31132
5266 527 2 8.62427 -2.34444 -9.75913
2216 222 2 -8.96355 -0.321507 -9.0472
9939 994 2 -9.03236 -1.195 -9.24995
2217 222 2 -8.68266 -0.12564 -9.89887
2215 222 1 -9.86818 -0.0656019 -9.13207
5135 514 1 -7.77821 -0.866431 -8.76613
2653 266 1 -7.95516 -1.40164 -9.55631
3131 314 1 -7.67685 -0.584918 -9.95664
2652 266 1 -7.73604 -0.143623 -8.90793
836 84 2 -6.99155 -1.26624 -9.16548
5136 514 2 -6.80553 -0.470421 -8.93397
835 84 1 -5.7706 -1.42676 -9.03676
8625 863 1 -5.71813 -0.683826 -9.40544
5307 531 2 -6.48005 -0.656864 -9.88833
4745 475 1 -5.5744 -0.677479 -8.70886
3378 338 2 -4.53964 -0.944038 -9.18325
545 55 1 -3.34121 -0.653461 -9.41372
2761 277 1 -3.4849 -1.37405 -9.2337
8628 863 2 -4.24806 -0.575637 -9.93885
3508 351 2 -4.15113 -0.111268 -9.27009
2762 277 1 -3.3215 -0.0664453 -8.92532
6408 641 2 -1.83106 -0.0121411 -9.08501
546 55 2 -2.25727 -0.939672 -9.07293
7199 720 2 -1.98002 -0.459269 -9.9234
7200 720 2 -2.48575 -0.361632 -8.57275
6407 641 2 -2.03115 -1.26806 -9.80681
4591 460 1 -0.985164 -0.893048 -9.18313
382 39 1 -0.756765 -0.444042 -9.86942
8299 830 2 -0.013234 -0.149755 -8.68722
3615 362 1 1.09722 -1.24933 -9.28952
3745 375 1 1.21078 -0.554895 -9.73043
1357 136 2 0.26553 -0.179269 -9.61384
230 23 2 0.0483012 -0.918415 -9.48644
7201 721 1 1.00432 -0.431948 -8.73824
9240 924 2 2.11589 -1.14389 -8.96888
3958 396 2 2.1502 -0.774322 -9.68691
3746 375 2 2.24883 -0.176951 -8.81621
3552 356 1 3.25362 -0.68525 -9.91064
4891 490 1 3.34996 -0.836892 -9.02144
9178 918 2 4.25638 -0.90124 -9.40003
9176 918 2 4.45356 -0.363933 -8.9073
4971 498 1 5.61783 -0.155733 -9.09287
751 76 1 5.48021 -1.03375 -9.40613
988 99 2 6.61601 -0.581198 -8.99134
6609 661 2 6.58797 -1.03172 -9.64446
4565 457 1 7.59699 -0.6337 -9.3252
7812 782 1 7.59491 -1.32239 -8.74873
2622 263 1 9.7919 -0.74421 -9.48045
2214 222 1 9.86916 -1.22417 -9.06232
4566 457 2 8.87641 -0.578459 -9.50537
4567 457 2 8.61321 -1.11532 -8.58732
5265 527 1 9.85972 -1.39814 -9.97821
7151 716 1 -8.59394 -9.42752 -8.47353
8000 800 2 -9.88552 -9.63118 -7.24375
1300 130 2 -9.43972 -8.71766 -7.75546
9314 932 1 -8.89434 -9.95715 -7.96188
7152 716 1 -8.63967 -9.90157 -7.26542
7160 716 2 -9.86769 -9.56322 -8.25428
4629 463 2 -7.2656 -8.8098 -8.46245
7327 733 2 -7.64822 -9.73564 -8.3829
7154 716 1 -8.40116 -8.99662 -7.71981
9318 932 2 -7.5464 -9.87156 -7.3765
4628 463 2 -7.3809 -9.22139 -7.54545
1575 158 1 -6.23792 -8.94076 -8.15527
1573 158 1 -6.55051 -9.64923 -7.96273
7461 747 1 -6.15729 -9.06191 -7.29359
1576 158 2 -5.26363 -9.21013 -8.16372
1580 158 2 -5.26796 -9.55417 -7.44533
2975 298 1 -4.33538 -9.77746 -8.25876
1907 191 2 -4.7124 -8.63296 -7.72979
1313 132 1 -3.92405 -8.81391 -8.30688
1312 132 1 -4.02344 -9.59515 -7.29054
2336 234 2 -3.0031 -9.7892 -8.01139
5013 502 1 -1.74497 -8.73374 -8.56082
2895 290 1 -1.85993 -9.53619 -8.08815
2977 298 2 -2.84548 -9.04542 -7.75073
2893 290 1 -1.73327 -8.70944 -7.65392
7220 722 2 -0.78258 -8.66683 -8.52755
2026 203 2 -0.930312 -9.75184 -7.2626
7219 722 2 -0.70202 -8.95047 -7.19248
2896 290 2 -0.789925 -9.38698 -8.10373
7829 783 2 1.25902 -9.67956 -8.48669
192 20 1 0.333873 -9.18666 -8.47778
4803 481 1 0.422509 -8.70228 -7.56004
5530 553 2 1.39621 -9.19398 -7.79097
4705 471 1 0.382686 -9.5376 -7.4982
4704 471 1 0.154209 -9.94935 -7.99223
9504 951 1 2.79417 -8.73142 -8.29807
9503 951 1 2.2669 -9.73212 -7.90203
4822 483 1 2.55679 -8.88446 -7.37436
1607 161 2 3.463 -9.75301 -7.83976
2438 244 2 3.81541 -9.04294 -7.6286
7562 757 1 4.5568 -9.73458 -7.69475
485 49 1 4.88324 -9.02365 -7.57707
486 49 2 5.66308 -9.6661 -8.20742
4687 469 2 6.16882 -8.87083 -8.48094
4684 469 1 7.04642 -9.64477 -8.32796
6918 692 2 5.97357 -9.21894 -7.42881
6917 692 2 6.18287 -8.5845 -7.80056
6914 692 1 7.08756 -9.33558 -7.50671
3314 332 1 7.1939 -8.91624 -8.35674
5226 523 2 8.20881 -9.35087 -8.16404
998 100 2 8.29397 -8.66212 -7.661
4680 468 2 7.8258 -9.87937 -7.27651
5225 523 1 9.22925 -9.07431 -8.2322
232 24 1 9.52182 -8.71184 -7.45768
2143 215 1 8.99789 -9.90991 -7.94168
7156 716 2 -8.99017 -7.78874 -8.24695
6106 611 2 -9.20673 -7.8957 -7.2027
9839 984 2 -8.93668 -7.15244 -7.67066
9832 984 1 -7.85444 -7.4347 -8.37286
9312 932 1 -8.23509 -8.23056 -7.83462
7155 716 1 -7.86497 -7.57321 -7.48254
9201 921 1 -5.89293 -8.32935 -8.47071
7730 773 2 -6.91857 -7.97761 -8.36923
7728 773 2 -7.02181 -8.38145 -7.74865
1391 140 1 -5.95733 -8.34406 -7.43025
9320 932 2 -6.78312 -7.3681 -7.40769
7729 773 2 -6.47988 -7.19583 -8.2965
4753 476 1 -5.49625 -7.6663 -8.43261
1905 191 1 -5.70691 -7.51274 -7.49322
8269 827 2 -4.91802 -8.37461 -8.49999
1906 191 2 -4.56911 -7.46996 -8.05829
8270 827 2 -4.6703 -7.72259 -7.33026
8144 815 1 -3.77749 -8.53867 -7.16473
8143 815 1 -3.49503 -7.47996 -8.13306
1314 132 1 -3.56438 -7.88448 -7.55984
1316 132 2 -2.70969 -8.15178 -7.90585
90 9 2 -2.30114 -7.28737 -7.61511
9134 914 1 -1.59637 -7.88448 -8.13598
5012 502 1 -1.56282 -8.16512 -7.14151
5516 552 2 -0.0585651 -7.47549 -8.34502
7218 722 2 -0.462669 -8.1912 -7.85208
5617 562 2 -0.444811 -7.85394 -7.15432
7062 707 1 -1.32967 -7.47585 -7.63581
7217 722 2 0.0549887 -7.19482 -7.64871
193 20 1 0.781712 -8.18598 -8.28164
4804 481 1 1.01754 -7.56312 -7.7618
2128 213 2 1.66821 -8.44796 -7.3154
4049 405 2 1.862 -8.15811 -7.97195
2127 213 2 2.28024 -7.53711 -7.69165
4821 483 1 3.2356 -8.10441 -8.18894
9505 951 1 3.3949 -7.34333 -7.86961
8807 881 2 4.35092 -8.13364 -8.20437
9506 951 2 4.2878 -7.64088 -7.40126
8804 881 1 5.61091 -7.56677 -8.04792
8803 881 1 5.31663 -7.22757 -7.36095
5213 522 1 5.10293 -8.30122 -7.75171
2797 280 2 6.39468 -7.9079 -7.31125
5216 522 2 6.6915 -7.7202 -8.15393
4685 469 1 7.67277 -8.33711 -8.44486
4683 469 1 7.1959 -8.49323 -7.68335
4682 469 1 7.70135 -7.485 -8.31062
2794 280 1 7.64824 -7.72135 -7.43046
527 53 2 8.71224 -7.41465 -8.32749
526 53 2 8.75835 -8.06796 -7.5992
997 100 2 9.03125 -7.39442 -7.60804
5224 523 1 9.82885 -8.06059 -8.2052
231 24 1 9.81334 -7.56644 -7.16433
590 59 2 -8.6764 -6.71985 -8.37514
6105 611 1 -9.70833 -6.88476 -8.28882
995 100 1 -9.57263 -5.94697 -8.13658
993 100 1 -9.84611 -6.65492 -7.4799
9835 984 1 -7.36944 -6.81316 -8.09229
2157 216 2 -8.41871 -6.22896 -7.68337
9811 982 1 -7.52404 -6.41295 -7.30686
9812 982 1 -7.18833 -5.89734 -8.31933
1396 140 2 -6.22689 -5.97891 -7.76531
2724 273 1 -5.30849 -6.67589 -8.32342
1395 140 1 -5.27915 -6.47511 -7.63964
1492 150 1 -2.91897 -6.22547 -8.50351
9787 979 2 -4.22468 -6.7371 -7.91563
9740 974 2 -4.11426 -6.02654 -8.0074
9874 988 1 -3.20768 -6.63989 -7.70414
5851 586 1 -3.00445 -5.75088 -7.74076
89 9 2 -2.0128 -6.74586 -8.4742
9136 914 2 -2.07806 -6.47149 -7.66196
5515 552 1 -0.45878 -6.06675 -8.35109
5514 552 1 -0.832401 -6.93475 -7.85368
7064 707 1 -1.07366 -6.1748 -7.6142
4043 405 1 1.23659 -6.97643 -8.24839
559 56 2 0.17768 -6.40617 -7.54471
4050 405 2 2.40404 -7.03198 -8.32697
7215 722 1 1.57438 -6.23667 -7.82704
2126 213 2 2.5442 -6.22415 -7.75207
6780 678 2 3.00226 -5.72059 -8.39637
5422 543 1 3.71787 -6.37718 -7.98259
5421 543 1 3.79707 -5.79238 -7.14414
5426 543 2 4.65825 -7.12848 -8.51392
338 34 2 4.70033 -6.38027 -8.53759
8808 881 2 4.57128 -6.72235 -7.68963
5427 543 2 4.97476 -5.84965 -8.0077
5215 522 1 5.84653 -6.78918 -8.28245
2800 280 2 6.8993 -6.90454 -8.31473
1257 126 2 6.75721 -6.98723 -7.41162
3482 349 1 5.80369 -6.62222 -7.47806
2924 293 1 5.9973 -6.06935 -8.10673
6084 609 1 8.08503 -6.50445 -8.33576
1256 126 2 7.21321 -6.12479 -8.37697
5972 598 1 8.3226 -5.77166 -8.39454
5971 598 1 7.92435 -6.90828 -7.56551
2799 280 2 7.15407 -6.08384 -7.61934
2203 221 1 8.21757 -5.96696 -7.60989
996 100 2 9.23669 -6.71568 -8.44708
6086 609 2 9.55392 -5.93324 -8.52487
2206 221 2 8.87217 -6.78182 -7.28812
8758 876 2 9.19408 -6.08945 -7.82657
992 100 1 -9.77089 -5.35438 -7.33661
589 59 2 -8.74025 -5.67895 -7.3068
8753 876 1 -9.10048 -4.79498 -7.85949
9836 984 2 -8.18394 -5.65931 -8.27196
2158 216 2 -8.08719 -4.91392 -7.91135
4749 475 2 -6.05295 -5.15805 -8.35825
7321 733 1 -7.02227 -5.25312 -7.73724
2726 273 2 -6.176 -5.31204 -7.17136
9813 982 1 -6.94724 -4.64623 -8.39603
8026 803 2 -5.92533 -4.46708 -7.65475
2725 273 1 -5.02422 -5.46094 -8.1135
8024 803 1 -5.19961 -5.22292 -7.19262
8025 803 1 -4.67775 -4.48636 -8.12071
3373 338 1 -4.82 -4.4514 -7.33987
568 57 2 -4.17025 -5.63918 -7.30205
569 57 2 -3.81641 -5.24486 -8.30375
1497 150 2 -3.50087 -4.51013 -7.94266
9789 979 2 -3.94585 -4.8291 -7.21266
9137 914 2 -1.71497 -5.60197 -8.44432
5853 586 1 -2.63187 -5.15964 -8.43329
3839 384 2 -1.94182 -5.65044 -7.47845
1493 150 1 -2.56889 -4.82607 -7.77155
7066 707 2 -1.58178 -4.68343 -7.28576
223 23 1 -0.0204774 -5.02167 -8.08055
5513 552 1 -0.564049 -5.45346 -7.61955
7884 789 1 -0.594387 -4.75894 -7.27527
4377 438 2 -1.39681 -4.93573 -8.06096
198 20 2 0.551632 -5.66778 -7.57569
558 56 2 0.974069 -5.42583 -8.22119
9236 924 2 0.868492 -4.52926 -7.96983
557 56 2 0.653159 -4.32888 -7.28776
9281 929 1 2.03807 -5.4959 -8.35057
5704 571 1 1.56284 -5.39352 -7.21663
9217 922 2 2.74196 -5.54548 -7.55772
7661 767 1 1.8089 -4.46845 -7.2687
7214 722 1 1.87948 -4.76321 -8.00646
9212 922 1 4.14072 -5.33578 -7.76953
9216 922 2 3.29895 -4.80255 -8.53747
3688 369 2 2.9196 -4.55047 -7.61066
3681 369 1 4.26153 -4.55476 -8.02088
8810 881 2 5.31497 -4.86762 -7.8717
3485 349 1 6.04953 -5.66275 -7.33713
1255 126 1 6.41145 -5.51331 -8.283
2925 293 1 6.68657 -4.72096 -8.44227
212 22 1 6.27234 -4.85357 -7.57558
1266 127 2 7.45397 -5.24776 -8.15656
2927 293 2 7.40097 -4.68037 -7.60609
5973 598 1 8.3293 -4.92999 -7.69433
8530 853 2 9.70352 -5.01305 -8.51671
2202 221 1 8.64348 -5.02298 -8.51827
5978 598 2 9.30714 -5.07927 -7.53802
5977 598 2 9.7556 -4.36388 -7.88372
376 38 2 -9.98041 -3.70527 -8.45151
3171 318 1 -8.6879 -3.07452 -8.3639
3172 318 1 -9.18646 -4.06626 -8.23026
8752 876 1 -9.04708 -3.69293 -7.50893
2655 266 1 -8.83539 -2.93682 -7.49343
7540 754 2 -9.91457 -2.97295 -8.08473
5310 531 2 -7.43396 -3.0127 -8.37901
587 59 2 -8.0869 -4.07243 -7.40936
940 94 2 -7.84758 -4.04906 -8.1628
5463 547 1 -6.94468 -4.00303 -7.77972
3731 374 1 -6.31198 -3.39733 -8.32246
832 84 1 -6.62526 -2.94391 -7.74909
4747 475 2 -5.28155 -2.87563 -8.56132
4748 475 2 -5.4813 -4.0342 -8.20541
970 97 2 -5.54163 -3.09352 -7.56062
102 11 1 -4.66898 -3.67314 -7.43775
3372 338 1 -4.28041 -3.61005 -8.36808
550 55 2 -3.36115 -3.97283 -8.44951
2170 217 2 -3.66545 -3.78152 -7.53223
1498 150 2 -3.17831 -3.16537 -7.74694
1495 150 1 -1.8718 -3.20265 -8.39822
4372 438 1 -2.29905 -4.07216 -8.17673
4371 438 1 -2.2455 -3.18807 -7.28671
9138 914 2 -1.1136 -4.28024 -8.35499
7883 789 1 -0.0623867 -4.2388 -8.34805
4220 422 2 -0.743197 -2.8555 -8.4793
9235 924 1 -0.143644 -3.56298 -7.66728
4378 438 2 -1.40602 -3.70854 -7.74478
224 23 1 -0.370216 -4.06347 -7.16016
3097 310 2 1.03501 -3.56163 -7.68649
7882 789 1 0.235822 -2.94419 -8.21422
1111 112 1 2.19101 -4.25787 -8.51466
1112 112 1 2.46762 -3.08717 -8.39274
555 56 1 2.07228 -3.79513 -7.88131
4898 490 2 3.61366 -3.01155 -8.47653
3686 369 2 3.46306 -3.82773 -7.95915
331 34 1 4.10901 -4.1193 -7.32706
4976 498 2 3.37744 -3.03332 -7.51838
3685 369 1 4.45631 -3.57406 -8.02755
7764 777 1 4.44586 -3.29094 -7.24642
7949 795 2 5.54464 -4.08405 -7.64667
9678 968 2 5.40243 -3.46179 -8.03922
213 22 1 6.63137 -3.87704 -8.0416
983 99 1 6.50144 -4.03171 -7.38606
501 51 1 6.85395 -3.11396 -8.09657
1268 127 2 8.07841 -2.97411 -8.37983
1267 127 2 7.62696 -3.94033 -7.69597
4569 457 2 7.80665 -3.02487 -7.66141
2212 222 1 9.02382 -3.069 -8.47105
9773 978 1 8.7461 -3.92572 -8.06343
5979 598 2 9.66022 -3.7006 -7.34866
5204 521 1 8.6662 -3.52684 -7.39385
377 38 2 9.91961 -3.0054 -7.33367
5980 598 2 -9.63023 -2.30616 -7.69496
2656 266 2 -9.41722 -1.59948 -8.1486
839 84 2 -7.20972 -2.05996 -8.46972
373 38 1 -8.54428 -2.25617 -8.03995
2153 216 1 -8.45944 -1.98056 -7.21935
838 84 2 -7.65224 -2.6474 -7.70534
8126 813 2 -7.44991 -1.79172 -7.68092
834 84 1 -6.37584 -2.24628 -7.86943
8623 863 1 -5.8573 -1.68491 -8.02266
3732 374 1 -6.62184 -2.41345 -7.16066
9820 982 2 -5.1389 -2.40172 -7.80455
4746 475 2 -4.78127 -1.74718 -8.49734
2764 277 1 -3.8132 -1.91193 -8.24521
103 11 1 -4.04131 -2.73716 -8.26801
3375 338 1 -4.21207 -2.69078 -7.46997
1163 117 1 -4.0282 -1.7901 -7.35629
9002 901 1 -1.73827 -2.34219 -7.71322
548 55 2 -2.72127 -2.08276 -7.79532
2168 217 2 -2.64686 -1.47525 -7.3916
4271 428 1 -1.67966 -1.53111 -8.02243
4219 422 2 -0.729283 -2.00112 -8.13426
226 23 2 -0.855407 -2.73702 -7.41402
7889 789 2 1.4247 -2.67456 -8.05654
3614 362 1 0.594343 -1.96405 -8.29142
3750 375 2 1.32793 -2.6831 -7.19456
2963 297 1 0.137552 -1.93421 -7.59126
3748 375 2 1.4129 -1.7634 -7.13983
225 23 1 0.233509 -2.79344 -7.24379
3749 375 2 1.72496 -1.81748 -8.38553
2714 272 1 2.65466 -2.3305 -8.04946
554 56 1 2.27959 -2.42488 -7.32861
6494 650 1 2.5961 -1.55755 -7.16288
4977 498 2 3.67746 -2.09169 -7.58407
4893 490 1 2.86039 -1.54262 -8.1562
333 34 1 4.7935 -2.65736 -8.23686
4975 498 1 4.67391 -2.39256 -7.25468
4974 498 1 4.80714 -1.44807 -8.28915
7763 777 1 5.08167 -1.78797 -7.5521
989 99 2 6.10957 -1.66575 -8.41033
986 99 2 5.86236 -2.74473 -7.93097
9676 968 2 5.84126 -1.96212 -7.62362
984 99 1 6.88331 -2.74331 -7.37263
7813 782 1 7.03599 -2.26221 -7.8999
3430 343 2 8.10588 -2.24451 -8.09582
8791 880 1 7.19764 -1.61574 -7.51806
1516 152 2 8.49277 -1.42926 -7.93015
2213 222 1 9.26739 -2.06735 -8.5461
5203 521 1 9.13541 -2.6531 -7.75666
1513 152 1 9.47212 -1.93115 -7.67632
70 7 2 -9.23071 -0.803362 -8.43246
7538 754 2 -9.27128 -1.02387 -7.38195
69 7 2 -9.03272 -0.134506 -7.23494
9938 994 2 -8.87994 -0.176137 -8.13065
2651 266 1 -8.25801 -1.10891 -7.8925
2151 216 1 -7.89031 -0.523865 -8.1225
8671 868 1 -7.82967 -0.194413 -7.31567
3737 374 2 -6.82543 -1.08301 -8.32272
840 84 2 -7.03003 -1.2339 -7.54897
936 94 2 -6.94169 -0.336863 -7.88402
3734 374 1 -6.16418 -1.33829 -7.21162
8624 863 1 -5.97843 -1.09478 -7.90867
3735 374 1 -5.90365 -0.40195 -7.15559
1241 125 1 -5.76531 -0.34815 -7.98342
8626 863 2 -4.62214 -0.708055 -8.51016
3506 351 2 -4.73771 -0.346385 -7.57838
3376 338 2 -4.7882 -1.40065 -7.7527
1162 117 1 -3.57963 -1.03282 -8.37087
3377 338 2 -4.24909 -0.0707773 -8.28598
2165 217 1 -3.73122 -1.03203 -7.2634
2763 277 1 -3.49163 -0.35223 -7.83719
2166 217 2 -2.75193 -1.19357 -8.30355
547 55 2 -2.47136 -0.719609 -7.69844
2167 217 2 -2.40477 -0.187348 -7.17272
9001 901 1 -1.51934 -1.09607 -7.39014
381 39 1 -1.38691 -0.634076 -8.46648
5088 509 2 -0.157078 -0.910477 -8.54499
4272 428 1 -1.39061 -0.290869 -7.65406
5090 509 2 -0.509301 -0.925741 -7.92546
5087 509 2 -0.23113 -1.03459 -7.17537
8300 830 2 -0.303774 -0.217687 -7.43646
2964 297 1 0.831705 -1.18658 -8.55304
3613 362 1 0.689941 -1.29163 -7.50603
2372 238 1 0.800083 -0.541437 -7.61033
3616 362 2 2.0062 -0.748665 -8.21555
7890 789 2 1.72379 -1.4223 -7.78012
3747 375 2 1.77007 -0.585411 -7.55236
6495 650 1 2.8423 -0.894004 -7.37329
4892 490 1 3.09053 -0.113702 -7.76749
6493 650 1 2.96477 -0.556941 -8.26396
9177 918 2 3.86576 -1.32894 -7.97133
9179 918 2 4.09318 -0.45258 -8.10421
4388 439 2 3.95009 -0.533274 -7.35085
4381 439 1 5.18442 -0.760224 -8.5528
7761 777 1 5.10381 -0.589892 -7.82433
6610 661 2 6.21735 -0.884226 -8.26904
5589 559 2 5.92303 -1.08871 -7.23095
990 99 2 6.51014 -0.453334 -7.73468
4354 436 1 7.76148 -0.215347 -8.52111
8793 880 1 7.37728 -1.06463 -8.06738
7811 782 1 7.7386 -0.381997 -7.611
7820 782 2 8.51524 -0.838301 -7.36194
50 5 2 8.7882 -0.328113 -8.40437
61 7 1 9.75613 -0.421376 -8.41084
62 7 1 9.83604 -0.169407 -7.26752
63 7 1 9.6119 -1.25154 -8.11242
1517 152 2 8.81398 -0.0415985 -7.49602
7533 754 1 9.58696 -0.849632 -7.39527
2400 240 2 -9.50501 -8.91723 -6.97665
4171 418 1 -8.71759 -9.90866 -6.40213
7999 800 2 -9.84426 -9.43807 -6.29587
9313 932 1 -8.50425 -9.11065 -6.93611
9319 932 2 -7.33834 -8.64454 -6.88538
7153 716 1 -8.43447 -9.18965 -6.16175
4626 463 2 -7.51225 -9.46783 -6.53875
7726 773 2 -7.38881 -8.72524 -5.81553
1902 191 1 -6.59148 -9.67051 -6.92557
5693 570 1 -6.51243 -9.76311 -6.16503
1392 140 1 -6.26072 -8.87129 -6.45153
1908 191 2 -5.18635 -9.28336 -6.69449
5859 586 2 -5.23229 -8.90122 -5.93732
9871 988 1 -4.17363 -9.00055 -6.50488
2869 287 2 -3.27507 -9.22676 -5.82897
2978 298 2 -2.93806 -8.72448 -6.3224
7029 703 2 -3.27258 -9.92734 -6.19041
2331 234 1 -1.84585 -9.67572 -7.07936
6730 673 2 -2.82844 -9.5866 -6.93063
2562 257 1 -2.16918 -9.67212 -5.95435
2025 203 1 -1.81394 -9.0239 -6.64993
2898 290 2 -0.734612 -9.41467 -6.56519
5160 516 2 -1.09894 -8.96648 -5.71358
5151 516 1 0.443759 -8.9784 -6.89585
7830 783 2 1.34584 -9.27728 -7.02259
1740 174 2 1.25694 -9.71125 -6.28221
5529 553 2 1.25546 -9.01916 -6.25897
7593 760 1 0.125504 -9.59622 -6.25136
743 75 1 2.39455 -9.6061 -7.07927
744 75 1 2.41886 -8.83549 -5.89741
741 75 1 2.29314 -9.71744 -6.06761
6070 607 2 3.37048 -9.32597 -6.72898
747 75 2 3.63414 -8.80947 -5.87885
750 75 2 3.43381 -9.56293 -6.03401
1023 103 1 4.7892 -8.80785 -6.68717
5052 506 1 4.50787 -9.6543 -6.59897
1022 103 1 4.46163 -9.63267 -5.80401
487 49 2 5.60355 -9.67466 -6.9751
6916 692 2 5.61485 -8.99302 -6.58381
489 49 2 5.75038 -9.38552 -5.82906
6915 692 1 6.98692 -9.35551 -6.37083
7612 762 1 6.70763 -9.95139 -6.06033
5227 523 2 8.03466 -9.14679 -7.02207
4679 468 2 7.99138 -9.38373 -5.98524
525 53 1 9.06155 -9.36472 -7.06511
2391 240 1 8.93836 -9.87018 -6.34692
233 24 1 9.19092 -8.90868 -6.31708
7998 800 2 -9.30387 -8.36094 -6.16133
7997 800 2 -8.99444 -7.2774 -6.46216
6107 611 2 -9.43927 -7.53309 -5.90699
4625 463 1 -8.25344 -8.34803 -6.81483
4624 463 1 -8.33056 -8.39119 -5.71532
9311 932 1 -8.13327 -7.79531 -6.32881
7727 773 2 -7.11372 -7.68132 -6.50342
1904 191 1 -6.25459 -8.0803 -6.29339
1394 140 1 -5.98566 -7.22989 -6.60337
5860 586 2 -5.04792 -8.38162 -6.97796
5858 586 2 -5.07285 -7.8009 -6.54672
8145 815 1 -4.01837 -8.25882 -5.95809
9872 988 1 -3.82189 -7.71491 -6.42977
6729 673 2 -2.55988 -8.40387 -7.03658
1317 132 2 -2.32833 -7.50149 -6.94108
5011 502 1 -1.96628 -8.54393 -5.81676
6728 673 2 -2.50969 -7.21178 -6.09111
2868 287 2 -2.78041 -8.02801 -6.19502
9135 914 1 -1.36614 -7.19072 -6.97271
2027 203 2 -0.615738 -8.5611 -6.473
5618 562 2 -0.378634 -7.72393 -6.59362
2028 203 2 -0.278419 -7.26602 -5.78211
2892 290 1 -1.39301 -7.99173 -6.31956
5643 565 1 -1.37877 -7.46846 -5.78043
194 20 1 0.671828 -7.92826 -6.90906
3913 392 1 0.356328 -8.501 -6.25251
5702 571 1 0.658709 -7.51348 -6.21685
4048 405 2 1.73529 -7.64363 -6.90249
742 75 1 2.80815 -8.48294 -6.5479
7270 727 2 1.65894 -8.22593 -6.38543
4047 405 2 2.16071 -7.74559 -5.91375
8806 881 2 3.80931 -8.48333 -6.8213
745 75 1 2.95913 -7.92226 -7.01246
2424 243 1 2.99227 -7.5596 -6.19131
746 75 2 3.98964 -7.69907 -6.30583
5053 506 1 4.67228 -8.4992 -5.8377
8802 881 1 4.98463 -7.68207 -6.13672
8805 881 1 5.1048 -8.01686 -6.90555
488 49 2 6.28612 -8.53428 -6.74556
7613 762 1 6.82704 -8.55183 -5.86041
2796 280 2 6.2545 -7.70274 -6.5553
2793 280 1 7.30994 -8.43375 -6.75244
2207 221 2 8.51776 -7.92321 -6.79711
999 100 2 8.29773 -8.49611 -6.3304
2795 280 1 7.61934 -7.48557 -6.52418