ITEM: TIMESTEP
2200000
ITEM: NUMBER OF ATOMS
10000
ITEM: BOX BOUNDS pp pp pp
-1.0632637552834746e+01 1.0632637552834746e+01
-1.0632637552834746e+01 1.0632637552834746e+01
-1.0632637552834746e+01 1.0632637552834746e+01
ITEM: ATOMS id mol type x y z
235 24 1 -9.80931 -9.11473 -9.66913
1642 165 1 -10.3242 -9.80973 -10.5146
238 24 2 -8.9558 -10.0459 -9.79654
3606 361 2 -8.27882 -9.14804 -9.40484
7598 760 2 -7.9936 -9.57905 -10.0219
239 24 2 -7.60307 -10.3759 -9.60606
7597 760 2 -7.01111 -9.41003 -9.87079
6258 626 2 -6.78282 -10.2227 -10.3566
3370 337 2 -6.41054 -10.492 -9.36701
7596 760 2 -5.8287 -10.5722 -10.2696
9482 949 1 -6.18032 -9.60727 -9.1181
3369 337 2 -6.25412 -9.64979 -10.4898
7595 760 1 -5.53212 -9.54587 -9.51002
7761 777 1 -5.21061 -9.78139 -10.4341
5857 586 2 -4.42154 -9.60325 -9.47873
8607 861 2 -3.97818 -10.4281 -9.89242
5856 586 2 -3.89151 -9.28762 -10.0721
7279 728 2 -3.45012 -9.31794 -9.32923
5050 505 2 -2.53171 -9.82757 -9.83856
8608 861 2 -2.60251 -10.5321 -10.2997
5858 586 2 -3.19978 -10.1621 -10.1132
5071 508 1 -1.49851 -9.26435 -10.3583
1201 121 1 -1.53883 -9.64895 -9.7914
3162 317 1 -1.27841 -9.99814 -10.577
5899 590 2 -0.525159 -10.0948 -9.41366
8506 851 2 -0.2209 -10.022 -10.1939
8508 851 2 0.478207 -9.68425 -9.61535
8509 851 2 0.698498 -9.5792 -10.345
7027 703 2 1.6854 -9.45604 -10.0208
7026 703 2 0.850037 -10.2997 -10.3102
8510 851 2 1.77566 -10.5843 -10.0004
1372 138 1 2.45647 -10.4689 -9.17565
3520 352 2 2.1929 -9.45686 -9.43512
3513 352 1 2.66213 -9.32895 -10.4511
5465 547 1 3.49825 -9.45907 -10.1458
5470 547 2 2.46647 -10.1726 -10.2802
5241 525 1 3.15699 -9.4481 -9.14874
3512 352 1 3.55243 -10.1159 -9.32581
476 48 2 4.62805 -9.70559 -9.56924
3160 316 2 5.03749 -10.2885 -10.3322
8061 807 1 5.46101 -9.14149 -10.549
3159 316 2 5.4221 -9.49223 -9.47812
8064 807 1 6.26471 -10.3507 -9.5473
8062 807 1 6.74513 -9.26476 -10.1863
3997 400 2 7.10454 -10.578 -9.56548
7656 766 2 7.92489 -9.54267 -9.28625
4111 412 1 8.72597 -9.89687 -9.57839
7113 712 1 8.36236 -10.3639 -10.3967
6245 625 1 9.03577 -10.6181 -10.4684
7657 766 2 9.1227 -9.33374 -10.2152
7112 712 1 9.55881 -10.2186 -9.6487
7741 775 1 10.1937 -9.57991 -9.9677
9625 963 1 10.2389 -10.1964 -9.33056
9624 963 1 9.53401 -9.15296 -9.17478
232 24 1 -9.52922 -8.33022 -9.32328
9175 918 1 -9.79422 -8.07689 -10.0206
234 24 1 -9.07177 -8.05016 -10.2689
237 24 2 -8.5995 -8.73025 -10.1389
3607 361 2 -8.03621 -8.01465 -9.72957
7599 760 2 -7.75435 -8.76359 -9.86685
3604 361 1 -7.0427 -8.19215 -9.84474
6259 626 2 -6.45996 -8.79208 -10.3066
141 15 1 -5.8632 -7.85917 -9.53988
3603 361 1 -5.94069 -8.61157 -9.40626
7427 743 2 -5.61448 -8.14586 -10.4462
7426 743 2 -4.72226 -8.79543 -9.89489
5078 508 2 -3.81613 -8.06464 -10.3365
5048 505 2 -4.24582 -8.4606 -9.46861
5047 505 2 -4.93554 -7.9018 -9.90953
5049 505 2 -3.19705 -8.87727 -10.2009
5079 508 2 -3.14371 -8.43429 -9.5714
5077 508 2 -2.91521 -7.97354 -10.2047
5072 508 1 -2.10166 -8.49825 -9.83767
5041 505 1 -1.17957 -7.9954 -10.1494
5898 590 2 -0.98058 -8.4298 -9.16478
8507 851 2 -0.544159 -9.10129 -9.41929
5042 505 1 -0.0407903 -7.89436 -9.79992
9224 923 1 -0.470223 -8.50693 -10.3306
81 9 1 0.439441 -8.56806 -10.2861
9226 923 2 1.03179 -8.75269 -9.46962
5247 525 2 1.1569 -7.70373 -9.8288
5246 525 2 1.95428 -8.36577 -9.66286
3519 352 2 2.60973 -8.46429 -10.0464
5244 525 1 3.38509 -8.53934 -9.45491
3518 352 2 3.25623 -7.88017 -10.3222
3516 352 2 2.14115 -7.61394 -10.6066
367 37 2 2.64683 -7.6661 -9.76066
475 48 1 4.03393 -8.52636 -10.1945
5464 547 1 4.63383 -8.74971 -9.51877
5463 547 1 5.07921 -8.47332 -10.2506
4119 412 2 6.10955 -8.94053 -9.50248
8069 807 2 6.12471 -8.06681 -9.78043
7658 766 2 7.59569 -9.03349 -9.95706
7659 766 2 6.98451 -8.07058 -9.81387
4117 412 2 7.37429 -7.98709 -10.5518
9172 918 1 7.80228 -7.66667 -9.5103
9842 985 1 8.26754 -7.71626 -10.401
7748 775 2 8.28448 -8.80371 -10.1273
9623 963 1 10.2303 -8.53032 -10.5538
9171 918 1 9.23973 -8.12256 -9.40994
2277 228 2 9.22289 -8.52718 -10.257
9174 918 1 10.2316 -7.70781 -10.4623
2276 228 2 10.4404 -8.60673 -9.49349
231 24 1 -9.39236 -7.19348 -10.2407
9622 963 1 -10.2656 -7.41131 -10.2001
2787 279 2 -10.3726 -6.88505 -9.21645
2788 279 2 -9.85874 -6.37632 -9.93302
233 24 1 -8.96342 -7.10809 -9.22236
2785 279 1 -8.84455 -6.5687 -10.0508
3561 357 1 -6.56138 -7.58375 -10.0991
3602 361 1 -7.0724 -7.52179 -9.35624
9179 918 2 -7.74824 -6.96447 -10.0663
8575 858 1 -6.76349 -6.37994 -9.82791
2569 257 2 -5.50121 -7.4035 -10.4745
8443 845 1 -5.82209 -6.82425 -9.64963
142 15 1 -5.02388 -7.00322 -9.36608
2570 257 2 -5.21445 -6.17586 -10.251
5045 505 1 -3.81662 -7.29169 -9.5133
7591 760 1 -4.42154 -6.3822 -9.49621
5046 505 2 -4.26562 -6.92366 -10.6107
9034 904 1 -2.26811 -7.0275 -9.88013
5044 505 1 -2.66588 -6.52679 -9.33663
2563 257 1 -3.27376 -6.93798 -10.069
5043 505 1 -1.61559 -7.51107 -9.70507
8229 823 2 -1.02866 -6.65744 -10.0556
9223 923 1 -0.439856 -7.32415 -9.36388
5249 525 2 -0.285636 -6.37716 -10.4362
5248 525 2 0.333767 -7.31035 -10.6319
7030 703 2 1.32954 -7.26876 -10.4087
163 17 1 2.07157 -7.10348 -9.40868
4238 424 2 0.936009 -6.82973 -9.73261
684 69 1 1.51928 -6.12391 -9.67554
685 69 1 2.84556 -6.6314 -9.75788
1834 184 1 2.13369 -6.57779 -10.4256
368 37 2 3.62225 -7.28026 -9.28516
6069 607 2 4.0501 -7.29022 -10.399
369 37 2 4.698 -7.36388 -9.97073
165 17 1 3.82047 -6.3387 -9.45353
168 17 2 5.11527 -6.60406 -9.86941
5740 574 2 5.32603 -7.43601 -10.4857
1863 187 1 5.90974 -7.12559 -9.4926
1864 187 1 6.22401 -6.92718 -10.3146
7471 748 1 7.03513 -6.9676 -9.84872
2477 248 2 7.54809 -6.15994 -9.96256
9844 985 1 8.61385 -7.37668 -9.43925
9173 918 1 8.70439 -6.96473 -10.3421
9845 985 1 9.11352 -6.24914 -9.84889
9841 985 1 9.48076 -7.43409 -10.0228
2789 279 2 10.2044 -7.00419 -9.72696
2790 279 2 -10.3969 -5.89942 -9.87909
7315 732 1 -10.0032 -5.06044 -9.19185
2192 220 1 -9.22794 -4.59052 -9.41032
8111 812 1 -10.2515 -5.13978 -10.3984
2784 279 1 -9.37624 -5.27093 -10.5643
7319 732 2 -8.84108 -5.53683 -9.68439
7320 732 2 -8.03188 -4.80988 -10.3117
8441 845 1 -7.77712 -5.94846 -10.4357
8446 845 2 -7.73941 -5.61007 -9.66317
8574 858 1 -7.07768 -5.35692 -10.4968
2196 220 2 -7.75007 -4.66587 -9.62537
8447 845 2 -6.89143 -4.9761 -9.34771
8442 845 1 -6.13874 -5.70118 -9.93063
145 15 1 -5.63638 -5.33675 -9.44
2675 268 1 -6.08399 -4.71476 -10.1249
5561 557 1 -3.6122 -5.89025 -9.95423
5562 557 1 -4.28546 -4.97638 -10.4831
143 15 1 -4.69333 -5.26405 -9.56893
9035 904 1 -2.4644 -6.01008 -10.5472
9036 904 2 -2.38874 -5.20661 -9.82237
6589 659 2 -3.45887 -4.75169 -9.89346
9230 923 2 -1.47877 -5.8268 -9.93264
681 69 1 -0.740943 -5.36825 -10.4538
9040 904 2 -1.50376 -4.59188 -9.70368
9222 923 1 -0.235885 -5.75786 -9.75027
733 74 1 -0.512023 -5.02618 -9.60693
683 69 1 0.239347 -5.32828 -10.4591
3373 338 1 0.0716313 -5.2667 -9.12902
6645 665 1 0.727978 -5.82547 -9.67608
3023 303 1 1.26223 -4.93577 -9.1746
1837 184 2 1.91891 -5.06209 -9.90958
162 17 1 2.47609 -5.9933 -9.28663
361 37 1 2.19871 -5.81172 -10.5092
363 37 1 3.32904 -6.06571 -10.2576
1840 184 2 2.80317 -5.07119 -9.58822
362 37 1 3.26309 -4.80867 -10.3855
167 17 2 4.54484 -5.80835 -10.338
1710 171 2 4.23603 -5.45385 -9.76916
1708 171 2 4.31589 -4.59895 -10.4826
1709 171 2 3.64499 -4.63749 -9.33941
166 17 2 5.21564 -6.06012 -9.20962
4823 483 1 5.03085 -4.69199 -9.63406
6716 672 2 5.95546 -5.93115 -9.13091
169 17 2 6.31817 -6.07297 -9.72951
1914 192 1 5.56625 -5.24514 -9.99868
6717 672 2 6.81885 -5.5423 -10.0688
9850 985 2 7.7415 -5.54894 -9.1425
7311 732 1 8.37253 -6.03779 -10.517
7312 732 1 8.74832 -5.22835 -9.60093
631 64 1 8.0918 -4.99024 -10.4465
7314 732 1 9.86872 -5.7585 -9.2855
2698 270 2 10.0357 -5.96679 -10.2852
2699 270 2 9.76458 -5.03163 -10.0094
9346 935 2 -10.3471 -4.07672 -10.1177
3641 365 1 -9.21597 -4.36573 -10.4428
9345 935 1 -9.36009 -3.21038 -10.0761
7500 750 2 -10.519 -3.30527 -9.925
208 21 2 -9.93673 -3.39413 -9.19161
1724 173 1 -8.79565 -3.99505 -9.15935
2195 220 1 -8.56587 -3.54106 -9.80585
2673 268 1 -8.06239 -3.45159 -10.5439
1727 173 2 -7.06455 -3.81777 -9.72449
8571 858 1 -6.80801 -4.43125 -10.5988
2197 220 2 -7.55 -3.32696 -9.5212
2674 268 1 -6.81966 -3.46845 -10.5317
2676 268 2 -6.20986 -3.62176 -9.40336
1728 173 2 -5.69268 -3.04782 -9.71648
5568 557 2 -5.15245 -4.13558 -10.0467
2677 268 2 -5.19104 -4.17939 -9.14209
5563 557 1 -4.18816 -3.8001 -10.429
1605 161 1 -4.19345 -3.16783 -9.8442
5169 517 2 -2.31681 -4.10765 -9.25298
1606 161 2 -3.46759 -4.07214 -9.34301
9037 904 2 -2.46136 -4.21872 -10.1258
7064 707 1 -3.27197 -3.17704 -10.0598
5168 517 2 -2.29504 -3.06173 -9.49525
9038 904 2 -1.36141 -3.65045 -9.36021
5624 563 1 -1.49292 -3.46316 -10.2921
1640 164 2 -0.0161828 -4.23206 -9.16112
734 74 1 -0.405956 -3.47139 -9.89044
735 74 1 0.639887 -4.49146 -9.83239
7229 723 2 0.603545 -3.46291 -10.4553
1838 184 2 1.54685 -3.88425 -9.70646
736 74 2 1.40985 -3.39743 -10.3486
1639 164 2 0.750097 -3.23468 -9.69813
737 74 2 2.34269 -4.10047 -9.62841
6064 607 1 3.4239 -3.71023 -9.51242
6602 661 1 2.80182 -3.04538 -9.93197
8964 897 1 4.94121 -3.59976 -9.54694
8965 897 1 4.45147 -4.01406 -9.62035
6063 607 1 3.81955 -3.44284 -10.3417
1095 110 1 5.93737 -4.38397 -9.80833
1096 110 2 5.48885 -3.64958 -10.389
6529 653 2 5.85941 -3.49061 -9.36182
4822 483 1 6.58532 -4.5219 -9.86351
6524 653 1 6.73199 -3.5698 -9.14192
4821 483 1 7.43102 -4.21597 -10.3758
6008 601 2 7.74396 -3.5959 -9.42706
2594 260 1 6.91075 -3.46419 -10.1213
6009 601 2 8.51936 -4.07084 -10.29
4680 468 2 8.55773 -4.0768 -9.44265
4676 468 2 8.12748 -3.27648 -9.92963
9652 966 1 9.85333 -4.31559 -9.29912
6005 601 1 9.44808 -3.63851 -10.464
1594 160 1 9.90371 -3.46486 -9.1149
1754 176 1 -9.80777 -2.24629 -10.3549
1755 176 1 -9.97404 -2.34905 -9.37419
9344 935 1 -9.14598 -2.81121 -9.5274
3649 365 2 -8.99891 -1.90777 -10.0309
3647 365 2 -8.21275 -2.60992 -10.5474
1725 173 1 -8.32989 -2.62468 -9.38616
1726 173 2 -7.35321 -2.64587 -10.1925
8164 817 1 -7.78615 -1.79428 -9.43794
2198 220 2 -6.76774 -2.43085 -9.35535
2200 220 2 -6.56327 -2.47763 -10.0862
2199 220 2 -5.58751 -2.30727 -10.0219
1729 173 2 -6.09283 -1.54552 -9.77457
7870 787 2 -5.23293 -2.0687 -9.21152
7868 787 2 -4.9823 -1.76121 -10.2587
7869 787 2 -5.09527 -1.53347 -9.20463
4202 421 1 -4.05503 -2.3325 -9.74126
4207 421 2 -2.32708 -2.19052 -10.2916
5167 517 2 -3.19646 -1.98027 -10.0527
9673 968 1 -2.14933 -1.65017 -9.12707
5625 563 1 -0.750167 -2.75296 -10.3857
9690 969 2 -0.944505 -1.93445 -9.41079
6608 661 2 -1.6119 -2.20827 -10.0245
4206 421 2 -1.62834 -2.71161 -9.21564
6606 661 2 -0.458497 -1.7868 -10.0983
9686 969 2 0.0598159 -2.22682 -9.2348
6605 661 1 0.120389 -2.64364 -10.2339
6603 661 1 1.50588 -1.96984 -9.98789
9685 969 1 0.848313 -2.38883 -9.97988
9684 969 1 1.95062 -1.6581 -9.4154
9683 969 1 2.38679 -2.46237 -10.4354
360 36 2 3.39816 -2.4345 -10.2245
8540 854 2 2.95868 -1.53275 -10.1272
8537 854 2 3.5842 -2.17944 -9.5063
8961 897 1 4.74587 -2.81761 -9.84171
8963 897 1 4.9768 -2.18887 -9.37418
637 64 2 5.8976 -2.93913 -10.0072
6528 653 2 5.94547 -1.96028 -9.54427
6530 653 2 5.54863 -2.5948 -10.5699
6527 653 2 6.0181 -1.65058 -10.3455
6525 653 1 6.84387 -2.36687 -10.0336
2595 260 1 7.14127 -2.69071 -9.1255
2593 260 1 7.35933 -1.91844 -9.5569
6007 601 2 7.79597 -2.66317 -10.5785
3242 325 1 8.79236 -2.24061 -10.4486
6006 601 2 8.85454 -3.02848 -9.78469
1757 176 2 9.33416 -2.44139 -9.38546
5692 570 1 10.4672 -2.37713 -9.24373
9347 935 2 10.0315 -2.99392 -10.2137
1756 176 2 10.2524 -2.1567 -10.3515
5237 524 2 9.65984 -1.71526 -9.74872
1753 176 1 -10.2267 -1.48394 -9.49192
1752 176 1 -9.92311 -1.33741 -10.2518
8162 817 1 -9.34523 -0.411159 -10.1596
1751 176 1 -10.2236 -0.206243 -10.2676
8832 884 1 -8.7057 -1.09374 -9.98393
8163 817 1 -8.13257 -0.567764 -10.1917
8833 884 1 -7.09436 -0.801359 -9.82134
1122 113 1 -6.86607 -1.30765 -9.11551
4697 470 2 -5.62979 -0.57431 -9.80593
4208 421 2 -3.60789 -1.20145 -9.96873
4209 421 2 -3.97795 -0.320231 -10.2976
7867 787 2 -4.80054 -0.498186 -9.95146
4698 470 2 -4.49922 -1.14703 -9.81819
4699 470 2 -3.06907 -1.25835 -9.18913
6831 684 1 -2.49131 -1.2562 -10.3224
7866 787 2 -3.5383 -0.487297 -9.52456
2407 241 2 -2.46309 -0.00602848 -9.38836
1602 161 1 -2.07002 -0.758271 -10.2182
6609 661 2 -0.755389 -0.984896 -10.3214
6832 684 1 -1.19002 -0.986203 -9.48418
7621 763 1 -0.613903 -0.171021 -9.73649
6610 661 2 0.155808 -0.552903 -9.1239
9689 969 2 0.352905 -1.32582 -9.5859
2459 246 2 1.08964 -0.978001 -9.59856
2460 246 2 1.58355 -0.322162 -10.1147
9688 969 2 0.918912 -0.1818 -9.43313
8686 869 2 2.34416 -0.839226 -10.1497
615 62 1 3.43956 -0.786923 -9.97644
5843 585 1 4.27659 -0.880559 -10.4801
8684 869 1 4.22646 -1.35277 -9.69248
8962 897 1 4.84197 -1.45106 -10.4001
5845 585 1 4.97278 -0.323633 -10.2748
5844 585 1 4.98476 -1.2352 -9.27289
8683 869 1 5.68068 -0.83994 -9.82481
2596 260 2 6.52659 -1.26333 -9.15263
2597 260 2 6.81438 -0.707646 -9.69551
6526 653 2 7.23721 -1.25578 -10.498
2600 260 2 7.3303 -0.0886028 -10.189
3241 325 1 8.2334 -1.46994 -9.53179
3250 325 2 8.14277 -0.571459 -9.97672
5236 524 2 9.11655 -0.357886 -9.57962
8629 863 2 10.6261 -0.35877 -9.11475
9350 935 2 9.39322 -0.864538 -10.2605
7700 770 2 9.65773 -0.964702 -9.201
5235 524 1 10.2887 -0.558465 -10.1689
1643 165 1 -10.4279 -9.78097 -9.08165
2274 228 1 -9.51322 -9.18361 -8.97213
8822 883 1 -10.298 -10.3927 -8.24114
8823 883 1 -9.86665 -9.37077 -8.02197
8824 883 1 -9.54104 -10.2469 -8.70183
9488 949 2 -8.20803 -10.1401 -9.07531
2273 228 1 -8.87268 -10.0094 -8.20444
2272 228 1 -7.86782 -10.3232 -7.92439
9481 949 1 -7.27607 -9.41004 -8.48158
9483 949 1 -7.04269 -10.4763 -8.55246
384 39 1 -6.09183 -10.2777 -8.33784
4920 492 2 -6.13988 -9.38451 -8.05759
7275 728 1 -5.46047 -10.4831 -8.70756
7149 715 2 -5.19595 -9.47681 -7.71893
7150 715 2 -5.01272 -9.70694 -8.41236
386 39 2 -4.59681 -10.2649 -7.86003
7421 743 1 -3.58964 -9.53799 -8.30412
8138 814 2 -3.6794 -10.541 -7.81494
7276 728 2 -4.12901 -10.3611 -8.74428
7277 728 2 -2.63548 -10.0042 -8.76419
6141 615 1 -2.78955 -9.67261 -7.85761
3161 317 1 -1.43457 -9.94502 -9.06208
8424 843 1 -1.86519 -9.14704 -7.76984
712 72 1 -0.862993 -10.1571 -7.64781
4222 423 1 -1.5402 -9.83534 -8.18883
714 72 1 -1.38843 -10.5706 -8.42135
711 72 1 -0.00665965 -10.4236 -8.32603
4223 423 1 -0.257036 -9.38087 -8.36957
8421 843 1 0.465008 -9.35516 -8.5965
4224 423 1 1.09187 -9.92371 -8.69806
8029 803 2 1.18535 -9.61796 -7.84824
4227 423 2 1.64414 -10.5576 -7.98969
5243 525 1 2.65865 -9.4693 -8.47037
3511 352 1 3.36695 -10.1918 -8.22721
722 73 1 4.0867 -10.2757 -7.59906
3156 316 2 4.45144 -9.72464 -8.7366
6859 686 2 3.8522 -9.13676 -8.25266
3863 387 1 5.11516 -9.44154 -7.61362
3993 400 1 4.99228 -10.4789 -8.17093
8067 807 2 6.31624 -9.79545 -8.70432
4120 412 2 5.3913 -9.57653 -8.74147
8065 807 1 5.90134 -10.3245 -8.33168
4478 448 2 7.50404 -10.1164 -8.94066
8066 807 2 7.002 -9.78657 -8.10127
7111 712 1 8.78896 -9.97659 -8.6668
4477 448 2 7.80647 -9.91955 -7.94066
7654 766 1 8.75911 -9.39616 -8.15114
9262 927 1 8.76879 -10.622 -8.03909
1644 165 1 9.57761 -9.86486 -8.75105
1648 165 2 10.1666 -9.6175 -8.05281
9968 997 2 -10.4138 -8.20522 -7.95615
2275 228 1 -9.94126 -7.76985 -8.77355
3610 361 2 -9.23606 -7.62316 -8.06535
9489 949 2 -8.66028 -8.93967 -8.25538
3608 361 2 -8.85472 -8.31133 -8.57235
532 54 1 -8.13608 -8.3444 -7.63835
3605 361 1 -7.71685 -8.5184 -8.53657
3601 361 1 -6.98631 -8.46703 -8.84679
4149 415 2 -6.05865 -8.37731 -7.95171
4916 492 2 -5.62209 -7.7266 -7.82509
7593 760 1 -5.29851 -7.84322 -9.00109
7594 760 1 -5.18492 -8.59807 -8.59936
7425 743 1 -4.1862 -9.01045 -8.63065
6142 615 1 -3.98853 -8.97028 -7.76537
7422 743 1 -3.59856 -8.28711 -8.55807
5093 510 1 -4.45077 -8.40052 -8.10364
7280 728 2 -2.49159 -8.96298 -8.87537
5080 508 2 -2.39883 -7.75051 -8.87047
7278 728 2 -2.83617 -8.77187 -8.17174
5099 510 2 -2.59992 -7.83266 -7.70315
8422 843 1 -1.04661 -9.05179 -8.37427
8425 843 1 -0.729706 -8.48158 -7.75251
4221 423 1 -1.6591 -8.38292 -8.16272
5897 590 2 -0.827585 -7.64631 -8.37717
9227 923 2 -0.138261 -8.33949 -8.66843
7029 703 2 1.07164 -7.81891 -8.95836
7028 703 2 1.63124 -8.81404 -8.8388
4240 424 2 0.92343 -8.39731 -8.3803
8253 826 1 2.004 -8.64017 -7.67597
8251 826 1 2.0896 -7.76042 -7.80959
5245 525 1 2.56622 -8.38139 -8.57153
6858 686 2 3.18475 -7.99072 -7.7376
5242 525 1 3.8066 -8.24923 -8.90141
687 69 2 4.23979 -8.39674 -7.97051
3157 316 2 4.99448 -8.6131 -7.98173
3158 316 2 5.69318 -8.24369 -8.90414
3862 387 1 6.18757 -8.97091 -8.23384
7660 766 2 6.12483 -7.83653 -8.39282
8068 807 2 7.13891 -9.00649 -8.98111
4830 483 2 6.86114 -7.97174 -8.96078
7655 766 1 7.72562 -8.91595 -8.08756
3861 387 1 6.92141 -8.57562 -7.97765
9843 985 1 8.06389 -8.39638 -8.89438
3000 300 2 8.11828 -7.90119 -7.94374
1645 165 1 9.02916 -8.8123 -8.63348
9847 985 2 8.92584 -7.81491 -8.40912
1650 165 2 10.2752 -7.72205 -9.01132
2480 248 2 9.91978 -7.8462 -8.26425
1646 165 2 9.8992 -8.84366 -8.04038
1649 165 2 10.4955 -8.60783 -8.63415
2786 279 2 -9.64348 -6.08758 -9.06767
6680 668 2 -9.80767 -6.44551 -8.28187
8576 858 2 -8.01603 -6.15905 -9.02086
3609 361 2 -8.01502 -7.38906 -8.72383
630 63 2 -8.34321 -6.52315 -7.62185
8577 858 2 -8.8371 -6.6229 -8.24672
8444 845 1 -6.4479 -7.51162 -8.86552
8445 845 1 -7.22656 -6.58903 -9.04435
412 42 1 -7.23175 -7.59258 -7.8864
8580 858 2 -7.77956 -6.57486 -8.28347
4148 415 2 -6.20016 -6.98418 -8.10533
4810 481 2 -5.68543 -6.22757 -8.64182
4147 415 2 -5.0035 -6.98043 -8.42614
7592 760 1 -4.26034 -7.49282 -8.75518
7423 743 1 -4.48077 -7.54063 -7.87524
4146 415 2 -3.69475 -6.49547 -8.5961
9679 968 2 -4.27482 -6.51007 -8.21468
5094 510 1 -3.52937 -7.58602 -7.67327
6641 665 1 -2.1786 -6.3774 -8.09582
9678 968 2 -3.35731 -6.27049 -7.66081
5100 510 2 -3.17595 -7.04452 -8.53051
9229 923 2 -1.2984 -6.9459 -8.96232
8183 819 1 -1.88494 -6.95219 -7.63646
6643 665 1 -1.02775 -6.28349 -8.0882
6644 665 1 -0.364693 -6.51462 -9.06889
9228 923 2 -0.196536 -7.1784 -8.13509
4239 424 2 0.430294 -7.13769 -8.69903
6646 665 2 1.00454 -6.10096 -8.9209
8024 803 1 1.17511 -7.3736 -7.62847
8252 826 1 1.9127 -7.55709 -8.70909
690 69 2 0.713818 -6.467 -8.18685
4237 424 2 1.64601 -6.14883 -8.64077
164 17 1 3.14999 -6.10299 -8.88367
686 69 2 3.07764 -7.35037 -8.50996
730 73 2 3.3239 -6.80577 -7.73678
689 69 2 2.20738 -6.65703 -8.29991
688 69 2 3.91422 -7.09328 -8.20456
6711 672 1 4.85143 -7.46512 -8.82686
6712 672 1 4.94617 -6.17616 -8.25479
3624 363 1 5.19695 -7.54024 -7.81332
6714 672 1 5.30582 -6.89592 -7.94937
6715 672 1 5.41261 -7.03456 -8.72624
1862 187 1 6.21982 -6.86786 -8.46363
1865 187 1 7.04993 -6.75838 -9.04065
4829 483 2 6.63192 -7.34488 -7.77089
1866 187 2 7.45287 -7.40764 -8.35331
5584 559 1 7.10535 -6.38579 -8.19169
2479 248 2 8.43265 -7.17744 -8.40715
5583 559 1 8.17993 -6.4304 -7.63667
9849 985 2 7.9091 -6.52879 -8.83256
9848 985 2 8.95595 -6.49613 -8.32829
9846 985 2 9.64913 -7.12729 -9.01416
331 34 1 9.95025 -6.74659 -7.88402
203 21 1 9.94256 -6.3021 -8.71088
9651 966 1 -10.6081 -5.58141 -9.07681
334 34 1 -10.2111 -5.82859 -7.60554
7316 732 2 -9.27586 -4.59851 -8.31352
204 21 1 -10.3694 -5.31465 -8.24981
7318 732 2 -9.1744 -5.53362 -8.05982
8579 858 2 -7.934 -5.61632 -7.88437
2193 220 1 -8.44433 -5.12142 -8.7179
8578 858 2 -7.33444 -5.64838 -8.67456
4809 481 2 -6.72253 -6.05041 -7.90325
8449 845 2 -6.81601 -4.84416 -8.22359
8448 845 2 -6.19564 -5.61093 -8.60718
2679 268 2 -5.79585 -4.55858 -8.75021
4914 492 1 -5.6155 -4.61435 -7.70288
8201 821 1 -4.96894 -5.50809 -8.82329
4145 415 1 -3.85368 -5.47404 -9.04533
8189 819 2 -4.83454 -5.8156 -7.84998
144 15 1 -4.86864 -4.81418 -8.31825
4142 415 1 -3.96999 -5.05434 -8.44851
8188 819 2 -4.57725 -5.29322 -7.63037
4143 415 1 -2.83137 -5.91672 -8.64061
5170 517 2 -3.08627 -4.76979 -9.08962
1607 161 2 -2.36166 -4.80831 -8.67269
4144 415 1 -3.31539 -5.13381 -7.96636
21 3 1 -1.53949 -5.70995 -8.84792
9676 968 2 -1.99402 -4.90977 -7.67893
3372 338 1 -1.01687 -5.05874 -8.71229
3377 338 2 -0.991298 -5.10636 -7.59941
9221 923 1 -0.670964 -5.79283 -8.72445
732 74 1 -0.0308798 -4.95608 -8.24807
3375 338 1 0.147454 -5.78856 -8.63427
3022 303 1 2.02362 -5.34759 -8.57519
3374 338 1 1.21896 -4.99019 -8.39563
4235 424 1 2.25626 -5.34315 -7.59927
161 17 1 2.87919 -5.84485 -8.07385
357 36 2 3.33987 -5.08252 -8.52862
6772 678 1 4.17193 -5.8638 -8.53785
6773 678 1 4.87239 -4.97131 -8.79164
4827 483 2 6.13484 -5.92581 -8.19284
1915 192 1 6.11083 -4.81987 -9.05611
4824 483 1 5.65851 -5.12949 -8.38875
1916 192 2 6.83426 -5.81824 -9.00154
5581 559 1 6.96817 -5.39099 -8.11488
1917 192 2 7.16306 -5.04919 -9.01635
2478 248 2 8.52105 -6.0342 -9.10821
6522 653 1 7.94814 -5.6853 -8.17756
9660 966 2 8.91164 -5.63002 -7.74254
7313 732 1 8.72739 -4.95245 -8.77372
2700 270 2 9.52616 -5.33203 -8.59063
9653 966 1 10.2635 -4.68388 -8.06489
2191 220 1 -10.5609 -4.44766 -9.06366
207 21 2 -10.5785 -3.70028 -8.28914
209 21 2 -9.93497 -4.06259 -8.51129
7317 732 2 -10.0225 -4.53025 -7.69376
6920 692 2 -9.4863 -3.07796 -8.54844
6918 692 2 -9.35373 -3.37553 -7.80207
1722 173 1 -8.7382 -4.43397 -7.64673
2194 220 1 -8.02524 -4.05698 -8.17529
1721 173 1 -8.56176 -3.45806 -8.53557
7342 735 1 -7.81435 -3.28532 -8.03356
1723 173 1 -7.57965 -4.42383 -8.70318
2678 268 2 -6.41308 -4.11878 -8.59224
4806 481 2 -6.83416 -3.72559 -7.78386
8450 845 2 -7.06937 -3.50042 -8.69599
4912 492 1 -5.49659 -3.39524 -8.72382
2680 268 2 -5.77147 -3.52234 -7.94901
6590 659 2 -4.35624 -3.94113 -9.04877
7405 741 1 -3.72995 -4.21595 -7.9947
4913 492 1 -4.55593 -4.11578 -7.98808
7404 741 1 -4.33933 -3.17653 -8.2907
9675 968 1 -2.35093 -3.85122 -8.07571
4141 415 1 -2.86065 -4.40349 -8.01174
1720 172 2 -3.348 -3.22701 -7.72877
4204 421 1 -2.99838 -3.47274 -8.73749
4205 421 1 -1.69827 -3.54925 -8.21209
22 3 1 -1.41727 -4.31217 -8.36217
3025 303 1 -0.727974 -4.04003 -8.55551
23 3 1 -1.11751 -3.03913 -8.15204
3371 338 1 -0.562576 -3.67561 -7.84525
24 3 1 -0.0348441 -3.14924 -7.63207
3024 303 1 0.699549 -4.35977 -8.50036
7912 792 1 0.250827 -3.875 -7.9524
3026 303 2 0.072256 -3.20414 -8.82294
351 36 1 0.990439 -3.65955 -8.11132
3280 328 2 1.64198 -4.24147 -7.73876
7911 792 1 1.32461 -3.75216 -8.84796
1839 184 2 2.17533 -4.2112 -8.71072
356 36 2 3.1937 -4.03849 -8.59865
3277 328 2 2.14632 -3.65723 -7.71895
3021 303 1 2.82827 -4.49955 -7.89431
358 36 2 4.23321 -3.92129 -8.44921
1620 162 2 5.09473 -3.93392 -8.25096
4826 483 2 6.00527 -4.47119 -7.64925
1918 192 2 5.94888 -3.92229 -8.43518
4825 483 1 6.67 -4.37149 -8.54135
6523 653 1 7.46688 -4.55648 -7.98864
2591 260 1 6.91452 -3.4903 -8.25089
6010 601 2 7.88206 -4.4717 -9.09651
4679 468 2 8.04557 -3.81617 -8.26683
1597 160 2 8.6337 -3.56601 -7.66852
4677 468 2 8.86568 -3.99893 -8.61611
1759 176 2 9.056 -3.05441 -8.78781
1595 160 1 9.58066 -4.11971 -7.66032
1592 160 1 9.64012 -3.06081 -7.62912
6917 692 2 -10.114 -2.47959 -8.43759
6916 692 2 -9.45093 -1.88047 -8.69662
7348 735 2 -8.67938 -2.08454 -8.25024
5305 531 1 -7.36313 -2.28327 -8.19619
5302 531 1 -6.64155 -1.70552 -8.12014
1121 113 1 -5.93409 -2.02129 -8.62973
5304 531 1 -6.15629 -2.78273 -8.72634
5303 531 1 -5.1913 -2.18332 -8.15109
7401 741 1 -3.58532 -2.96976 -9.03417
7402 741 1 -4.68043 -2.94596 -9.07922
7403 741 1 -3.94181 -1.80104 -8.934
2403 241 1 -4.13818 -2.29831 -8.33186
4203 421 1 -2.89674 -2.28968 -9.06296
1719 172 2 -3.02484 -2.03 -7.93742
9672 968 1 -2.46002 -2.91297 -8.35926
4700 470 2 -2.4806 -1.56953 -7.80082
9674 968 1 -1.79541 -2.5851 -8.0337
9671 968 1 -1.46101 -1.90231 -8.4392
6607 661 2 -0.705412 -2.85992 -9.01244
7917 792 2 -0.384219 -2.23933 -7.94785
3027 303 2 0.257106 -1.96836 -8.54318
353 36 1 1.19941 -2.47667 -9.02801
7913 792 1 0.927464 -2.72016 -8.22571
354 36 1 1.70008 -2.92751 -8.40988
352 36 1 0.93582 -2.26511 -7.61014
3028 303 2 1.6953 -1.52801 -8.24518
9682 969 1 2.53596 -2.33799 -8.90603
355 36 1 3.04845 -2.78948 -8.16808
359 36 2 3.7723 -2.96583 -9.06882
4232 424 1 4.07733 -2.97703 -7.96537
2432 244 1 4.93598 -3.01392 -8.70347
2669 267 2 4.86982 -1.99782 -7.63204
2670 267 2 4.10286 -2.16248 -8.75029
8536 854 2 4.07822 -1.52514 -8.44606
1919 192 2 6.04706 -2.58741 -8.99802
2431 244 1 5.36927 -1.85915 -8.59829
1920 192 2 6.05276 -2.79039 -8.17891
2592 260 1 7.05659 -2.27727 -8.26999
4678 468 2 8.28856 -2.71586 -8.99156
1758 176 2 8.13382 -1.86935 -8.6217
2251 226 1 8.54077 -2.69363 -7.89432
5238 524 2 9.14465 -1.95333 -8.76124
1593 160 1 10.2462 -1.95376 -8.52012
1760 176 2 10.3779 -2.97728 -8.44336
8630 863 2 -9.56062 -0.715866 -8.99796
5691 570 1 -10.5234 -1.24624 -8.43122
7349 735 2 -9.3224 -1.30776 -8.01508
5694 570 1 -10.2505 -0.692469 -8.05507
5513 552 1 -10.221 -0.0388549 -8.16031
1123 113 1 -8.00247 -0.411454 -8.91004
7350 735 2 -8.67744 -1.46032 -9.0246
8798 880 2 -8.52944 -0.661459 -7.93901
5301 531 1 -7.78804 -1.46348 -8.43261
9386 939 2 -6.45796 -0.661197 -7.90015
5520 552 2 -6.95134 -0.345955 -8.48252
1730 173 2 -5.90842 -0.907733 -8.89037
9385 939 1 -5.68562 -1.51207 -7.74261
4692 470 1 -5.23825 -0.397118 -8.54077
7811 782 1 -4.78848 -0.00595487 -9.06245
2405 241 1 -4.21214 -0.615683 -8.82537
2404 241 1 -4.83284 -1.36847 -7.87015
4691 470 1 -4.16412 -1.23988 -8.45391
1717 172 2 -3.24265 -1.12904 -7.93016
2406 241 2 -3.13247 -0.507752 -8.38026
1713 172 1 -1.1865 -0.0160718 -8.96794
6835 684 1 -1.78102 -0.0435587 -7.73937
6834 684 1 -1.89685 -0.956469 -8.69158
1714 172 1 -1.67905 -0.433218 -8.31719
5359 536 2 -0.913248 -0.967503 -7.69272
6833 684 1 -0.664328 -1.16429 -8.65783
6837 684 2 -0.127367 -0.256428 -7.77587
3030 303 2 0.387964 -1.15398 -8.04903
8687 869 2 2.05663 -0.579059 -8.88034
9687 969 2 1.08867 -1.42258 -8.8443
3029 303 2 1.51635 -0.737946 -8.00028
8680 868 2 1.88732 -0.0262461 -7.9658
8685 869 1 3.13302 -1.07378 -9.10289
3271 328 1 2.81776 -0.83628 -7.61917
3275 328 1 2.8714 -1.51128 -8.32944
2457 246 2 2.81236 -0.271215 -8.32002
616 62 2 4.0062 -0.668018 -8.74191
8535 854 1 4.87762 -0.959717 -7.91488
617 62 2 3.71869 -0.0611747 -8.01848
8532 854 1 5.30658 -0.20694 -8.9486
2598 260 2 6.19458 -0.656165 -8.47225
3258 326 2 6.08869 -1.29001 -7.94749
2599 260 2 7.49252 -0.744313 -9.02874
3259 326 2 7.10679 -0.890528 -8.25303
3257 326 2 7.59759 -1.45802 -8.17864
5239 524 2 8.74926 -1.06795 -8.02598
5240 524 2 8.77097 -0.840839 -8.83767
5698 570 2 8.17333 -0.264426 -8.05669
7699 770 2 9.18485 -0.326001 -8.27695
5695 570 1 10.0074 -0.711236 -7.88266
5693 570 1 9.84763 -1.31551 -8.423
8821 883 1 -10.4807 -9.43782 -7.22795
9194 920 1 -10.1648 -10.3748 -7.47297
1527 153 2 -9.40346 -9.84228 -6.82894
4515 452 1 -10.6061 -10.4154 -6.65063
9193 920 1 -10.458 -9.84983 -6.25088
4516 452 2 -9.40434 -10.6269 -6.34766
4518 452 2 -9.14003 -10.4796 -7.14537
1528 153 2 -8.57922 -9.32075 -7.45494
382 39 1 -7.91414 -10.1576 -6.99715
9965 997 1 -8.75709 -9.20188 -6.32112
1524 153 1 -8.17343 -9.86621 -6.15236
1526 153 2 -7.79726 -9.3143 -7.21699
383 39 1 -6.83161 -10.5843 -7.43245
7148 715 2 -6.72415 -9.62165 -7.28389
1529 153 2 -7.27593 -9.33041 -6.43244
7147 715 2 -6.5956 -10.1922 -6.33298
1063 107 1 -5.82435 -10.1118 -7.0578
4918 492 2 -6.37004 -9.26566 -6.17236
5553 556 1 -5.29642 -9.55572 -6.57469
5092 510 1 -3.88244 -9.56791 -7.30051
5560 556 2 -4.01116 -10.3259 -6.74993
6145 615 1 -2.12866 -9.41212 -7.07304
5091 510 1 -3.07836 -9.86362 -6.37556
4709 471 2 -1.71921 -10.3181 -7.00393
6147 615 2 -1.31091 -9.39886 -6.48519
8423 843 1 -0.465653 -9.20653 -7.53557
8427 843 2 -0.199041 -9.34338 -6.68084
4228 423 2 0.619497 -9.9882 -7.44449
1590 159 2 0.00221784 -10.5016 -6.78467
725 73 1 1.1358 -9.69824 -6.63953
3870 387 2 1.92128 -10.5921 -6.08616
8254 826 1 2.06578 -9.90208 -6.93866
723 73 1 2.67829 -9.86932 -7.57643
8255 826 1 3.51621 -10.1469 -6.88969
724 73 1 2.29337 -9.20269 -6.51335
2351 236 1 3.15976 -9.20127 -6.20357
6857 686 2 3.858 -9.14106 -7.3427
6427 643 2 4.47099 -9.6965 -6.45387
3864 387 1 5.05097 -10.5191 -6.69077
721 73 1 5.68313 -10.1754 -7.47933
830 83 2 6.00774 -9.53919 -6.6243
4476 448 2 6.57955 -9.62974 -7.27211
2999 300 2 7.71422 -9.14277 -7.13906
2997 300 2 6.59575 -10.6005 -6.779
7651 766 1 6.95854 -9.20076 -6.09966
2998 300 2 7.32108 -9.74812 -6.88266
9261 927 1 8.97293 -9.67452 -7.50058
9267 927 2 8.7561 -10.3689 -6.31007
4513 452 1 8.57303 -9.21874 -6.18751
9266 927 2 9.17832 -10.1535 -6.6507
7653 766 1 8.91645 -9.23942 -6.89069
2620 262 2 9.756 -10.0816 -7.41779
4514 452 1 9.8691 -9.48525 -6.63517
9967 997 2 -9.5297 -8.92951 -7.30673
9490 949 2 -9.71854 -8.26691 -7.50726
8937 894 2 -9.70296 -8.07964 -6.61987
8936 894 2 -10.4949 -8.39253 -7.06604
6724 673 1 -9.02675 -8.47925 -6.11357
1525 153 1 -7.94868 -8.33056 -6.37541
9964 997 1 -8.61849 -7.79474 -6.30514
4919 492 2 -6.97711 -8.74932 -7.28927
533 54 1 -7.21068 -7.99035 -6.69418
1530 153 2 -6.07541 -8.8394 -6.83193
4150 415 2 -5.37955 -8.05381 -6.99246
4917 492 2 -4.99397 -8.6647 -7.06021
4488 449 2 -4.4093 -9.04069 -6.38713
5097 510 2 -4.24154 -8.30769 -6.64136
7424 743 1 -3.52861 -8.39589 -7.43482
6143 615 1 -2.96385 -9.00899 -6.92012
5098 510 2 -2.85605 -7.76011 -6.82452
6146 615 2 -2.16997 -8.29297 -6.66531
5896 590 2 -1.70656 -7.95165 -7.2668
8026 803 2 -0.973518 -8.25734 -6.88665
8428 843 2 -0.372614 -7.88632 -6.47545
8426 843 2 0.697898 -8.95488 -7.55144
8025 803 1 0.0583372 -8.0959 -7.59384
8027 803 2 0.324503 -8.48491 -6.65308
8028 803 2 1.0956 -8.62887 -6.71258
4599 460 2 1.68616 -7.86296 -6.74361
6860 686 2 3.00283 -8.6959 -7.26887
729 73 2 2.63657 -8.01782 -6.79762
6856 686 2 4.73154 -8.88908 -6.73336
7639 764 2 4.88699 -7.91892 -6.11466
5683 569 1 3.78817 -7.66358 -6.86211
6855 686 1 3.76538 -8.29256 -6.45857
7638 764 2 4.71197 -8.14408 -6.73526
3623 363 1 5.92213 -8.4911 -7.40849
7640 764 2 5.5472 -8.92907 -6.34623
6851 686 1 5.77348 -7.69628 -6.9786
3622 363 1 6.89944 -8.57559 -7.10706
1867 187 2 7.00164 -7.69206 -6.94285
6852 686 1 6.49221 -8.48677 -6.31429
3621 363 1 7.73049 -8.05485 -6.44404
5587 559 2 8.46918 -8.34467 -7.20091
1647 165 2 9.95291 -8.52089 -7.08534
9969 997 2 10.3827 -7.73689 -6.5647
5588 559 2 9.5708 -8.0035 -6.56922
333 34 1 -9.69349 -7.02088 -7.26086
8939 894 2 -10.2473 -6.64353 -6.31414
531 54 1 -8.72833 -7.53913 -7.18557