ITEM: TIMESTEP
19900000
ITEM: NUMBER OF ATOMS
10000
ITEM: BOX BOUNDS pp pp pp
-9.8470343256394610e+00 9.8470343256394610e+00
-9.8470343256394610e+00 9.8470343256394610e+00
-9.8470343256394610e+00 9.8470343256394610e+00
ITEM: ATOMS id mol type x y z
3228 323 2 -8.9004 -8.98714 -9.22769
3226 323 2 -9.31444 -9.62136 -8.73256
7042 705 1 -9.80265 -8.70513 -9.73652
4175 418 1 -8.23306 -9.53383 -8.47405
4171 418 1 -7.89027 -9.28043 -9.2481
4831 484 1 -7.8265 -8.77826 -8.57662
4714 472 1 -7.66811 -8.69491 -9.81877
4758 476 2 -6.82359 -9.28111 -9.1311
3086 309 2 -6.47542 -8.47265 -9.49045
8961 897 1 -5.63695 -8.83201 -8.89233
5555 556 1 -5.94367 -9.54068 -8.57936
2873 288 1 -5.70102 -9.42017 -9.50887
3085 309 1 -5.44228 -8.52033 -9.5809
8108 811 2 -4.50708 -8.76376 -9.3126
3808 381 2 -4.66061 -9.09307 -8.47084
8109 811 2 -4.85853 -9.75975 -9.06603
6032 604 1 -3.5828 -9.22241 -9.42893
573 58 1 -3.83304 -9.74536 -8.69689
579 58 2 -2.53624 -8.90526 -8.92584
7029 703 2 -2.64515 -9.66832 -9.38723
2021 203 1 -1.63433 -9.43899 -8.72281
2310 231 2 -0.292601 -9.34714 -9.51179
5013 502 1 -1.34814 -9.1233 -9.51432
5016 502 2 -0.657558 -9.73301 -8.80934
3619 362 2 -0.18291 -8.82705 -8.90723
7160 716 2 -8.73501 -8.09122 -8.68387
7048 705 2 -8.5441 -8.11385 -9.42387
4431 444 1 -9.55928 -7.8378 -9.49609
8675 868 1 -9.50073 -7.33389 -8.49668
7045 705 1 -9.78993 -8.08573 -8.67754
5462 547 1 -7.51685 -8.22778 -9.17003
2408 241 2 -8.35799 -7.33654 -9.03025
9068 907 2 -8.22508 -7.33715 -9.79657
7681 769 1 -7.25632 -7.40316 -9.28481
4177 418 2 -6.59338 -8.40391 -8.63263
4179 418 2 -6.31501 -7.66671 -8.95264
1575 158 1 -5.24154 -7.71536 -8.85035
1571 158 1 -5.14758 -7.72297 -9.67132
3807 381 2 -4.26047 -7.99888 -9.10758
7024 703 1 -3.30853 -8.29992 -9.37263
3347 335 2 -4.08682 -7.17387 -8.91895
6033 604 1 -3.35894 -8.0585 -8.54258
2876 288 2 -3.94248 -7.18942 -9.82176
6721 673 1 -2.98634 -7.36316 -9.06061
7067 707 2 -2.1533 -8.39559 -9.56938
4407 441 2 -2.02887 -7.76122 -8.90541
7068 707 2 -1.73178 -7.03411 -9.4695
2024 203 1 -1.08333 -8.41755 -9.0341
4983 499 1 -0.74053 -7.2591 -9.35017
7063 707 1 -0.911897 -7.66709 -8.5549
7062 707 1 -0.944888 -7.96178 -9.81463
7044 705 1 -9.29138 -6.91513 -9.164
431 44 1 -9.14892 -6.11276 -8.72712
8753 876 1 -8.99057 -6.17997 -9.66736
2410 241 2 -8.38651 -6.77042 -8.4576
585 59 1 -7.30149 -6.76989 -8.48515
6691 670 1 -7.06951 -6.51762 -9.24011
9069 907 2 -8.10483 -6.15836 -8.99813
2409 241 2 -7.98847 -6.53316 -9.69322
5447 545 2 -6.02718 -6.96027 -9.6386
6679 668 2 -6.24364 -6.87569 -8.65464
2 1 1 -6.78162 -5.70079 -9.59421
7683 769 1 -6.96515 -5.83438 -8.74124
4180 418 2 -6.00391 -6.29079 -9.06556
5446 545 2 -5.68884 -5.74063 -9.51367
1572 158 1 -5.03837 -6.81232 -8.75582
962 97 1 -4.93339 -6.91049 -9.52648
3345 335 1 -4.70274 -5.97692 -9.09734
1577 158 2 -3.74573 -6.3151 -8.959
9875 988 1 -2.7528 -6.78042 -9.72087
4372 438 1 -2.64501 -6.55601 -8.88208
6035 604 1 -2.45575 -5.86447 -9.24951
4408 441 2 -1.59974 -6.50681 -8.75273
7882 789 1 -0.561725 -6.57978 -8.88872
2570 257 2 -1.36645 -6.03946 -9.46081
4984 499 1 -0.279095 -6.07015 -9.52945
8754 876 1 -9.03633 -5.33586 -8.60852
2151 216 1 -8.93045 -5.43411 -9.45384
9065 907 1 -8.63449 -4.62657 -9.17156
5290 529 2 -9.77866 -4.84129 -9.54954
9066 907 2 -7.84131 -5.36519 -9.13569
5298 530 2 -7.64685 -4.49055 -8.96681
5300 530 2 -7.3751 -4.43264 -9.77328
6680 668 2 -5.76429 -5.49138 -8.63682
7684 769 1 -6.37887 -5.0136 -9.69903
583 59 1 -6.64189 -4.90497 -8.84626
2241 225 1 -6.36686 -4.24469 -9.51079
4749 475 2 -5.40955 -4.97068 -9.21956
7687 769 2 -5.34142 -4.2895 -8.7125
7721 773 1 -4.39402 -5.25854 -9.64509
965 97 1 -4.49744 -5.09006 -8.78464
3343 335 1 -4.29993 -4.24775 -8.61494
6647 665 2 -3.50866 -5.4449 -8.86704
1578 158 2 -3.33658 -5.41114 -9.76053
3342 335 1 -4.1841 -4.29112 -9.62719
9456 946 2 -3.30101 -4.52987 -9.12974
6645 665 1 -2.13149 -5.17173 -9.66621
9455 946 1 -2.39812 -5.07974 -8.77215
5561 557 1 -2.01185 -4.37395 -9.58309
4987 499 2 -1.36994 -5.56034 -8.7566
7883 789 1 -0.0879106 -5.39416 -9.05197
5090 509 2 -1.0616 -5.09342 -9.39396
4988 499 2 -0.96169 -4.44882 -8.82831
6038 604 2 -0.820934 -4.40647 -9.82932
5999 600 2 -9.62301 -4.06468 -9.19629
5286 529 2 -9.31316 -3.28813 -9.03263
5285 529 1 -8.43076 -3.60632 -9.02868
8671 868 1 -8.34822 -4.18977 -9.81214
2248 225 2 -7.45172 -3.79571 -8.5699
5299 530 2 -7.20525 -3.43614 -9.1827
2243 225 1 -6.40899 -4.18788 -8.58824
582 59 1 -6.23162 -3.48395 -8.96839
2242 225 1 -5.87155 -3.18901 -9.60599
966 97 2 -5.21154 -4.21529 -9.65483
4750 475 2 -5.00781 -3.63168 -9.21542
8600 860 2 -4.72391 -3.07141 -9.63326
541 55 1 -4.00914 -3.47327 -8.82247
7864 787 1 -3.78771 -3.48906 -9.73707
6649 665 2 -2.95335 -3.80757 -9.31321
6644 665 1 -1.99347 -4.18529 -8.84588
5564 557 1 -1.6711 -3.34861 -8.85283
6643 665 1 -1.45941 -3.33933 -9.66484
7867 787 2 -2.54246 -3.05013 -9.3138
5086 509 2 -0.610134 -3.79415 -9.34884
4989 499 2 -0.610208 -3.24909 -8.6429
2517 252 2 -0.300089 -3.06944 -9.84499
1750 175 2 -9.02711 -2.71885 -9.71604
4486 449 2 -8.9882 -2.13593 -9.10167
1749 175 2 -9.26395 -2.65243 -8.53853
1748 175 2 -8.81018 -1.40861 -8.58318
5283 529 1 -8.16518 -2.80188 -8.53067
361 37 1 -8.02733 -2.71744 -9.50982
362 37 1 -7.92696 -1.89825 -8.5564
5282 529 1 -7.74256 -1.9052 -9.37818
2249 225 2 -6.87635 -2.68238 -9.23952
2677 268 2 -6.61428 -1.81211 -9.34171
1965 197 1 -5.85145 -2.71209 -8.85625
4742 475 1 -5.67614 -2.0329 -8.44235
5138 514 2 -6.69233 -1.64112 -8.46945
4743 475 1 -5.61729 -2.3899 -9.63314
6191 620 1 -5.4848 -1.6031 -9.26345
968 97 2 -4.49592 -2.26396 -9.81521
6398 640 2 -4.75057 -2.6234 -8.87316
8599 860 2 -4.48131 -1.91647 -9.03749
542 55 1 -3.53828 -2.47319 -9.24714
7865 787 1 -3.67432 -2.78657 -8.5287
6394 640 1 -3.51055 -1.86385 -8.61606
1391 140 1 -3.29482 -1.6841 -9.61475
9459 946 2 -2.44553 -2.13568 -9.05794
7868 787 2 -2.176 -1.76033 -9.72968
9762 977 1 -1.46184 -2.47371 -9.05924
2550 255 2 -2.28432 -1.48206 -8.45958
511 52 1 -1.17739 -2.41538 -9.69371
7479 748 2 -0.305871 -2.59997 -9.07081
2516 252 2 -0.00126186 -1.84373 -9.40359
241 25 1 -1.08236 -1.53513 -9.21779
829 83 2 -8.55216 -1.25106 -9.52481
4481 449 1 -9.63915 -0.474589 -8.50776
2660 266 2 -8.57836 -0.724836 -8.60796
8372 838 1 -9.37751 -0.649546 -9.6529
5622 563 1 -9.69807 -1.15749 -9.05059
1747 175 2 -8.24316 -0.412212 -9.3466
3175 318 1 -7.46997 -1.17163 -9.01228
9061 907 1 -7.36927 -0.415001 -8.8719
5302 531 1 -7.09091 -0.152248 -9.59739
5139 514 2 -6.3203 -1.22297 -9.77491
3177 318 2 -6.38697 -0.963038 -8.85426
2779 278 2 -6.07815 -0.377236 -9.32762
1937 194 2 -6.07175 -0.0341648 -8.5128
7525 753 1 -4.9766 -0.193496 -9.84513
7523 753 1 -5.40074 -1.15348 -8.53919
3964 397 1 -5.16844 -0.69704 -9.17014
7524 753 1 -5.05055 -0.101 -8.48402
7526 753 2 -4.23975 -1.09313 -9.40192
2047 205 2 -3.81617 -0.265046 -9.54057
8598 860 2 -4.2113 -0.680113 -8.65584
544 55 1 -3.24496 -1.14624 -8.88952
6393 640 1 -2.9543 -0.713574 -9.39785
2541 255 1 -2.95651 -0.203524 -8.6323
546 55 2 -2.02631 -1.1783 -9.15088
2549 255 2 -1.9023 -0.336608 -8.70818
2548 255 2 -1.69707 -0.380722 -9.50076
242 25 1 -0.626051 -0.477205 -9.75828
9764 977 1 -0.775565 -0.630636 -9.00595
1491 150 1 -1.15706 -1.2213 -8.50224
821 83 1 -9.18329 0.760712 -8.72404
1742 175 1 -9.0489 0.849101 -9.49542
1745 175 1 -9.17951 0.0100468 -9.14457
6280 628 2 -8.20169 0.251112 -8.79233
826 83 2 -7.92296 1.03387 -8.95927
8057 806 2 -7.93932 0.490794 -9.73168
3173 318 1 -7.01531 0.56556 -8.9427
6763 677 1 -6.69833 1.2284 -9.35174
3179 318 2 -5.95199 0.528952 -9.13368
1939 194 2 -5.54223 1.37927 -9.35979
6521 653 1 -4.62809 1.04607 -9.08631
9811 982 1 -4.8286 0.297085 -9.14447
2048 205 2 -3.60279 0.853813 -8.9617
7528 753 2 -3.52077 0.574762 -9.76198
7527 753 2 -3.89315 0.0522736 -8.70109
1815 182 1 -2.56126 0.693044 -8.88072
4114 412 1 -2.35386 0.901466 -9.69036
4111 412 1 -2.58889 0.0887324 -9.51644
1910 191 2 -1.5653 0.388595 -9.09138
9766 977 2 -1.23045 1.15375 -9.59077
1497 150 2 -1.30283 1.16338 -8.79816
243 25 1 -0.411209 0.647512 -9.14627
383 39 1 -0.610987 0.0539494 -8.67631
825 83 1 -8.7894 1.63782 -9.22382
8379 838 2 -9.52515 2.49757 -9.02885
949 95 2 -9.52989 2.03171 -9.77293
7574 758 1 -8.49075 2.00636 -9.75656
4165 417 1 -8.43656 2.44758 -8.82613
8056 806 2 -7.58043 1.76226 -9.42966
4166 417 2 -7.51227 2.24453 -8.73549
2673 268 1 -6.5606 1.62994 -8.56754
6762 677 1 -6.28937 2.34116 -8.95473
8668 867 2 -5.52539 1.54639 -8.46959
2960 296 2 -5.34456 2.35199 -8.48886
8669 867 2 -5.17695 2.23188 -9.33637
2043 205 1 -4.30984 1.71259 -9.19144
2049 205 2 -3.24451 1.51255 -9.83292
3502 351 1 -4.06536 2.49084 -9.17471
1816 182 2 -3.31285 1.70495 -8.90074
4117 412 2 -3.04447 2.39328 -9.43494
3072 308 1 -2.24246 1.72921 -8.98245
4801 481 1 -1.96359 2.42492 -9.13743
8141 815 1 -0.148691 1.62931 -8.84407
390 39 2 -1.0207 2.06246 -9.35806
386 39 2 -1.10216 2.01402 -8.55605
1999 200 2 -9.1984 3.1803 -9.55256
9718 972 2 -8.95318 4.09645 -9.19429
8380 838 2 -9.20295 3.50794 -8.60364
8055 806 1 -8.15772 2.89669 -9.52213
7469 747 2 -7.18225 2.87124 -9.25924
8052 806 1 -8.01303 3.56652 -8.98219
4167 417 2 -7.05126 3.49607 -8.64765
1933 194 1 -6.04897 3.17522 -8.79267
6761 677 1 -6.01384 2.85828 -9.77741
3500 350 2 -6.82106 3.62682 -9.44282
9464 947 1 -5.74945 3.82323 -9.57175
9467 947 2 -4.94484 3.10784 -9.44738
8670 867 2 -5.02673 3.17728 -8.55823
2977 298 2 -4.66941 3.93993 -8.56927
4086 409 2 -4.61002 3.91024 -9.42698
9031 904 1 -3.97893 3.04551 -8.47168
1245 125 1 -3.83135 3.1047 -9.77559
8087 809 2 -2.94358 2.84557 -8.60207
3503 351 1 -3.73424 3.65298 -9.01477
4085 409 1 -3.54027 3.87447 -9.82492
1250 125 2 -2.77326 3.06763 -9.80722
3071 308 1 -1.62006 3.15748 -9.24871
9601 961 1 -1.67883 3.42063 -8.5292
6207 621 2 -2.71238 3.4267 -9.05352
8088 809 2 -2.5041 4.1688 -8.85466
8089 809 2 -2.3928 3.74679 -9.84402
387 39 2 -0.573148 2.93157 -9.15381
1811 182 1 -1.33228 4.03467 -9.10918
9768 977 2 -0.375392 3.68472 -9.34729
388 39 2 -0.396022 4.12041 -8.61878
9695 970 1 -9.70577 4.92118 -9.26764
6437 644 2 -8.67454 5.06605 -9.08143
2695 270 1 -7.78665 4.33485 -9.10446
2693 270 1 -7.55343 4.81659 -9.71346
9823 983 1 -7.69615 5.01561 -8.82474
7470 747 2 -6.79303 4.33036 -8.66982
8968 897 2 -6.61169 4.37655 -9.55875
2696 270 2 -6.54096 5.11459 -9.16118
1932 194 1 -5.60927 4.46051 -8.88356
9465 947 1 -5.3877 5.07961 -9.42979
2975 298 1 -5.45598 5.25437 -8.46535
4087 409 2 -4.57106 4.7742 -8.66594
2978 298 2 -4.29724 4.7781 -9.52339
2979 298 2 -4.25955 5.56219 -8.63989
9032 904 1 -3.54135 4.37275 -8.7359
3504 351 1 -3.24008 4.74037 -9.50468
4088 409 2 -4.01726 5.61913 -9.45085
6204 621 1 -3.33363 5.1941 -8.44665
9033 904 1 -3.00805 5.50161 -9.27298
6208 621 2 -2.17594 4.52452 -9.65206
298 30 2 -2.06509 5.15382 -9.1086
3506 351 2 -1.79194 5.52966 -9.83627
2302 231 1 -0.791028 5.40938 -9.63498
4661 467 1 -1.0225 5.56516 -8.46094
4804 481 1 -1.06082 4.92923 -8.91927
9691 970 1 -9.50172 5.81377 -9.06856
9962 997 1 -9.34685 6.62763 -8.63205
7703 771 1 -9.06705 6.63234 -9.49268
6440 644 2 -8.32499 6.25979 -8.81249
4626 463 2 -8.37706 5.76631 -9.66611
9822 983 1 -7.23692 6.36209 -8.73773
6433 644 1 -7.37085 5.68181 -9.43771
4627 463 2 -7.99992 6.82996 -9.29023
2697 270 2 -6.27381 6.23293 -8.51427
5398 540 2 -6.2218 5.93729 -9.18437
4323 433 1 -6.93684 6.59733 -9.52261
8966 897 2 -5.87304 6.59149 -9.70444
1931 194 1 -5.1986 5.86436 -8.97119
3693 370 1 -4.93333 6.75872 -8.88786
3692 370 1 -4.80049 6.40545 -9.70772
2980 298 2 -3.90959 6.49242 -9.1305
3461 347 1 -3.02248 6.21056 -8.72907
2866 287 2 -3.55525 6.97982 -9.67473
6210 621 2 -1.95428 5.93108 -8.61867
297 30 2 -1.61475 6.37863 -9.33427
9034 904 1 -2.56245 6.70082 -9.3712
4805 481 1 -0.665908 6.11243 -9.22878
2303 231 1 -0.279163 6.86589 -9.43503
4662 467 1 -0.434934 6.88768 -8.62782
4711 472 1 -9.0641 7.37906 -8.79541
7702 771 1 -8.87062 7.9688 -9.24065
3829 383 2 -9.80056 7.99927 -9.70056
9961 997 1 -8.97173 7.37316 -9.8031
1957 196 2 -7.92379 7.50056 -8.83312
4628 463 2 -7.53972 7.99408 -9.55799
4322 433 1 -7.00043 7.26132 -8.56416
8965 897 1 -6.64492 7.48989 -9.30575
5399 540 2 -5.78319 7.22983 -9.02212
5394 540 1 -6.63293 8.21229 -8.79775
8277 828 2 -5.58882 8.06398 -8.88146
5400 540 2 -5.44712 8.24178 -9.78493
2863 287 1 -4.58799 7.53877 -9.05815
8275 828 1 -4.3837 8.10345 -9.63314
576 58 2 -3.73931 7.15053 -8.55875
9036 904 2 -3.47017 7.73244 -9.04371
2867 287 2 -3.16654 8.17715 -9.76309
577 58 2 -3.32657 8.35013 -8.51342
3462 347 1 -2.47982 7.49704 -9.07762
9035 904 1 -2.22588 7.84172 -9.75714
3508 351 2 -1.56537 7.04897 -8.80826
3510 351 2 -1.2328 7.46229 -9.48891
3235 324 1 -0.231515 7.65762 -9.01165
7712 772 1 -0.00969048 8.35432 -8.51207
2308 231 2 -0.871638 8.24196 -9.77479
3509 351 2 -1.06549 8.29487 -8.91532
4712 472 1 -8.69747 8.70445 -8.84783
3229 323 2 -9.45768 9.45807 -9.16479
9500 950 2 -9.80906 8.71154 -8.95525
4173 418 1 -8.38943 9.56212 -9.02269
4811 482 1 -8.36044 8.85786 -9.60832
4713 472 1 -8.04153 9.76266 -9.75365
4629 463 2 -7.141 9.12685 -9.81056
1960 196 2 -7.51651 8.76012 -9.02521
4330 433 2 -7.12522 9.64958 -9.2118
8964 897 1 -6.30098 8.68817 -9.4261
8962 897 1 -6.04846 9.50184 -9.21462
2020 202 2 -5.26558 8.94981 -8.46899
5557 556 2 -5.11138 9.10706 -9.34738
574 58 1 -4.26708 8.56753 -8.90554
2861 287 1 -3.97583 9.23992 -9.15132
7028 703 2 -3.04823 8.81989 -9.30153
578 58 2 -2.8694 9.55108 -8.71232
4121 413 1 -2.03999 8.4949 -9.16554
4402 441 1 -1.95068 9.15862 -8.5849
5014 502 1 -1.66354 9.54897 -9.3712
2868 287 2 -2.6871 9.37069 -9.7496
2309 231 2 -0.673089 9.16822 -9.3607
2307 231 2 -0.898281 8.99695 -8.55089
7046 705 2 -9.05485 -8.84229 -8.43263
4835 484 1 -8.47284 -9.84655 -7.50698
4839 484 2 -9.38638 -9.46062 -7.88774
7158 716 2 -9.23651 -8.85056 -7.21837
4836 484 2 -9.46351 -9.70789 -7.09718
4176 418 2 -7.10274 -9.51015 -8.32965
4172 418 1 -8.14302 -9.15387 -7.87036
4832 484 1 -8.14378 -8.75773 -7.08314
4756 476 2 -7.20646 -9.46009 -7.42691
2188 219 2 -6.92674 -8.75893 -7.93896
2189 219 2 -6.939 -8.58732 -7.27411
5392 540 1 -6.19612 -9.77141 -7.79925
5551 556 1 -5.84591 -8.93692 -7.99019
1374 138 1 -6.08719 -9.23409 -7.21201
3349 335 2 -4.94195 -9.24183 -7.59924
7025 703 1 -3.63697 -8.97366 -8.32009
1275 128 1 -3.81076 -8.91313 -7.14745
6622 663 1 -3.90956 -9.60001 -7.68991
7026 703 2 -2.66847 -9.39421 -8.20231
580 58 2 -2.64208 -8.81065 -7.5738
4404 441 1 -1.6584 -9.22523 -7.547
2025 203 1 -1.36491 -8.72772 -8.20488
7220 722 2 -0.471263 -9.15634 -8.1222
2270 227 2 -0.655751 -9.35668 -7.37519
4837 484 2 -9.00742 -8.41084 -7.75824
7049 705 2 -8.54875 -7.52023 -8.09967
523 53 1 -9.73741 -7.33943 -7.68459
7159 716 2 -8.84409 -7.65319 -7.3206
6692 670 1 -7.45212 -7.61083 -8.40776
5461 547 1 -7.87327 -8.27319 -7.83185
7155 716 1 -7.60328 -7.35462 -7.60483
7326 733 2 -6.70462 -7.75901 -7.13389
6678 668 2 -6.56588 -7.88959 -7.95044
1574 158 1 -5.66341 -8.06354 -7.49361
5554 556 1 -5.51235 -8.16236 -8.28593
963 97 1 -5.35284 -7.19717 -8.1348
5553 556 1 -5.49654 -7.29948 -7.18158
3348 335 2 -4.38297 -8.26218 -8.24164
3809 381 2 -4.72345 -8.40946 -7.45733
1576 158 2 -4.22395 -7.28569 -8.17526
9009 901 2 -4.54447 -7.5414 -7.48501
6623 663 1 -3.53711 -8.2982 -7.67795
6624 663 1 -3.21326 -7.15107 -7.15357
4371 438 1 -3.16335 -7.5321 -7.9644
7066 707 2 -2.31686 -8.3363 -8.2705
2568 257 2 -1.90687 -7.2403 -8.28958
7065 707 1 -1.57181 -8.42473 -7.21057
4406 441 2 -2.25075 -7.7047 -7.61985
3618 362 2 -0.28661 -8.2788 -7.62857
4405 441 1 -1.16333 -7.9349 -7.78542
7064 707 1 -1.12219 -7.19116 -7.44691
7086 709 2 -0.0580058 -7.48773 -7.22485
589 59 2 -8.51721 -6.91225 -7.58282
8755 876 1 -9.41245 -6.54316 -8.05985
524 53 1 -9.45481 -6.33319 -7.2952
2904 291 1 -9.16513 -5.6959 -7.85172
7050 705 2 -8.26921 -6.20996 -7.57918
586 59 2 -8.06316 -5.75639 -8.20061
6693 670 1 -7.238 -6.49389 -7.75023
6674 668 1 -7.22052 -5.96684 -7.09795
6676 668 2 -6.09642 -6.0582 -8.22376
6677 668 2 -6.53696 -6.79405 -7.08239
4178 418 2 -6.34715 -7.03032 -7.92066
584 59 1 -6.96965 -5.64443 -7.96638
1968 197 2 -6.03763 -6.0861 -7.47043
1573 158 1 -5.20406 -6.57845 -7.5991
964 97 1 -4.98986 -6.07356 -8.18825
6034 604 1 -2.96449 -6.80931 -8.22233
5569 557 2 -4.17273 -6.76333 -7.31179
9010 901 2 -3.98013 -6.3487 -8.09146
9007 901 2 -3.93738 -5.88285 -7.18026
4373 438 1 -3.02788 -6.43144 -7.53707
4375 438 1 -2.87114 -5.82531 -7.04804
4374 438 1 -2.65122 -5.72579 -8.29034
4409 441 2 -1.98682 -6.63838 -7.56625
2569 257 2 -1.70981 -6.04564 -8.09984
4985 499 1 -0.468769 -5.82649 -8.315
4982 499 1 -0.801849 -6.83837 -8.08423
2565 257 1 -0.678712 -6.17244 -7.60032
433 44 1 -9.09532 -5.30677 -7.10455
2903 291 1 -8.82429 -4.59618 -7.37926
432 44 1 -8.74285 -4.74309 -8.18809
590 59 2 -8.06251 -5.51031 -7.30616
9070 907 2 -7.83017 -4.97164 -8.12741
587 59 2 -7.86132 -4.76323 -7.13393
6694 670 1 -6.9506 -5.249 -7.26437
2770 277 2 -5.86764 -5.28676 -7.4844
6675 668 1 -6.74112 -4.84892 -7.97781
2244 225 1 -6.81708 -4.38716 -7.24533
7688 769 2 -5.74915 -4.35882 -7.36874
1967 197 2 -5.66299 -4.79308 -8.20559
3344 335 1 -4.76142 -5.23774 -7.97594
1901 191 1 -4.91406 -5.58739 -7.30618
5695 570 1 -4.63795 -4.69018 -7.11556
1902 191 1 -4.39644 -4.39564 -7.80827
5568 557 2 -3.7042 -5.53574 -8.02287
6648 665 2 -3.30423 -4.52742 -8.18885
9006 901 2 -3.59003 -4.83387 -7.44151
9454 946 1 -2.62842 -5.24212 -7.50316
4986 499 2 -1.58882 -5.55885 -7.50111
5565 557 1 -2.257 -4.48471 -8.0318
7884 789 1 -0.39828 -5.14292 -7.69163
5089 509 2 -1.36634 -4.96292 -8.17641
5084 509 1 -0.0903684 -4.79841 -8.35467
2512 252 1 -0.273479 -4.52515 -7.14692
3909 391 2 -1.28575 -4.55268 -7.50767
2902 291 1 -8.66443 -3.98518 -8.39311
5289 529 2 -9.69388 -4.1511 -8.3947
5288 529 2 -9.7423 -3.51979 -7.20454
5284 529 1 -8.54142 -3.68941 -7.67313
6000 600 2 -9.49622 -3.40589 -7.97749
438 44 2 -7.63192 -4.13879 -7.85084
2247 225 2 -7.62608 -3.61724 -7.12691
2901 291 1 -8.35814 -2.84113 -7.7541
2250 225 2 -7.38013 -3.13759 -7.99811
439 44 2 -7.41309 -2.90371 -7.17145
581 59 1 -6.53166 -3.80337 -7.82666
4741 475 1 -6.11197 -3.13848 -8.10999
2245 225 1 -6.26813 -2.93667 -7.1452
1966 197 2 -5.14198 -3.35659 -8.4286
2769 277 2 -5.321 -3.98356 -7.8793
5788 579 2 -5.37438 -3.53367 -7.20302
6399 640 2 -5.01843 -2.94512 -7.66522
1903 191 1 -4.3216 -3.45153 -7.04236
7866 787 2 -2.99771 -3.77539 -8.43326
5694 570 1 -4.15173 -3.56751 -7.93538
5566 557 2 -3.3036 -3.97689 -7.34293
520 52 2 -2.99176 -3.33982 -7.69493
6650 665 2 -2.69578 -2.82509 -8.39029
3902 391 1 -1.93192 -3.57877 -8.02482
9453 946 1 -2.20831 -3.93546 -7.291
3903 391 1 -1.89154 -3.00306 -7.1166
5087 509 2 -0.899228 -3.9336 -8.16253
3908 391 2 -0.917872 -3.37603 -7.4177
5287 529 2 -9.3279 -2.55067 -7.6854
2659 266 2 -9.12185 -1.75822 -7.83237
2651 266 1 -8.10429 -2.03069 -7.70805
5137 514 2 -7.1003 -2.24974 -7.59052
440 44 2 -6.96796 -2.50445 -8.38824
1964 197 1 -5.99655 -2.41288 -7.7608
3733 374 1 -6.0094 -1.98421 -7.08678
8595 860 1 -5.6768 -1.47221 -7.65586
6397 640 2 -4.45411 -1.49094 -8.34811
8596 860 2 -4.7586 -2.34016 -8.07438
6396 640 2 -4.89351 -2.1062 -7.28564
543 55 1 -3.62421 -1.88888 -7.85748
6395 640 1 -3.88078 -2.70455 -7.66607
1906 191 2 -2.91687 -2.68085 -7.36881
519 52 2 -2.57007 -2.0898 -7.92105
1862 187 1 -1.68292 -2.72955 -8.01597
1861 187 1 -1.57971 -2.12346 -7.23236
4990 499 2 -0.258763 -2.05816 -8.36982
512 52 1 -1.33421 -1.99703 -8.32259
7480 748 2 -0.602153 -2.80966 -7.92687
8857 886 2 -0.678653 -2.47756 -7.0356
7477 748 2 -0.421651 -1.89123 -7.58005
1863 187 1 -1.36605 -1.44647 -7.56992
8530 853 2 -8.80044 -0.966721 -7.76195
2216 222 2 -8.60778 -0.2078 -7.28771
7535 754 1 -9.82035 -0.728099 -7.72057
5281 529 1 -7.60736 -1.15869 -8.22347
1746 175 2 -8.38445 -0.094172 -8.06566
3535 354 1 -7.55719 -0.241724 -7.05638
363 37 1 -7.88186 -1.23675 -7.41514
3174 318 1 -7.48106 -0.493842 -7.8167
3176 318 2 -6.81582 -1.40458 -7.66221
5730 573 2 -6.5879 -0.651858 -7.0651
2780 278 2 -6.36605 -0.77158 -8.10219
3961 397 1 -5.39074 -0.115025 -7.1258
3963 397 1 -5.35388 -0.533249 -7.82876
8597 860 2 -4.65994 -1.30019 -7.52588
4907 491 2 -4.20481 -0.543321 -7.79163
9223 923 1 -3.37811 -1.21689 -7.27683
9222 923 1 -3.00133 -0.023692 -7.7073
6392 640 1 -3.2609 -0.938803 -8.0148
1908 191 2 -1.93978 -0.099974 -7.64177
518 52 2 -2.16007 -0.778238 -8.08118
1907 191 2 -2.38944 -1.38151 -7.46273
8856 886 2 -0.289386 -1.34639 -7.08318
513 52 1 -1.02943 -0.654482 -8.01748
1492 150 1 -1.11368 -0.614878 -7.2178
3869 387 2 -0.0894536 -1.06262 -7.81795
1741 175 1 -9.33997 0.202134 -8.09099
6271 628 1 -9.21181 0.968139 -7.65006
4482 449 1 -9.55499 0.126578 -7.29352
5301 531 1 -7.17559 0.142558 -8.30428
6278 628 2 -8.2279 0.594328 -7.10033
4170 417 2 -8.13971 0.766213 -7.95083
3172 318 1 -7.25937 0.536059 -7.47061
1935 194 1 -6.96023 1.02968 -8.12797
3178 318 2 -6.32647 0.0163431 -7.74268
1940 194 2 -5.83554 0.793502 -8.20429
1936 194 2 -5.96848 0.803809 -7.38317
9813 982 1 -4.98642 0.509763 -7.29724
9812 982 1 -4.56538 1.38276 -8.2227
3962 397 1 -4.73255 0.592818 -8.12114
6523 653 1 -4.79583 1.28891 -7.31536
1820 182 2 -4.04618 0.227075 -7.31016
1817 182 2 -3.7387 0.627656 -8.05884
2729 273 2 -3.76575 1.11397 -7.17175
2547 255 2 -1.61162 0.364133 -8.30361
2542 255 1 -2.60023 0.705416 -7.96634
9221 923 1 -2.63508 1.16924 -7.27411
2546 255 2 -1.82327 0.582312 -7.10757
1909 191 2 -1.45885 1.07154 -7.85493
382 39 1 -0.349694 1.03817 -8.39311
384 39 1 -0.391738 1.02376 -7.47751
1493 150 1 -0.650933 0.302688 -7.84829
4164 417 1 -8.92515 1.47738 -8.28906
2000 200 2 -9.59549 2.78618 -8.18828
4163 417 1 -9.02859 1.8256 -7.12092
6275 628 1 -8.77574 2.32885 -7.88818
6279 628 2 -7.91989 1.52548 -8.204
6276 628 2 -8.02594 1.42908 -7.22489
4169 417 2 -7.71293 2.11703 -7.66258
9938 994 2 -7.61522 2.72404 -7.06624
2672 268 1 -6.89052 1.50232 -7.37798
1934 194 1 -6.62942 2.1894 -7.92875
5727 573 2 -5.65582 1.67189 -7.60791
8667 867 2 -5.43116 2.58397 -7.60286
6522 653 1 -4.34228 2.14881 -8.33514
8622 863 1 -4.59394 2.15668 -7.38111
8086 809 2 -3.46898 1.44724 -8.15637
1818 182 2 -3.61638 1.77554 -7.45653
3501 351 1 -4.15552 2.69009 -7.75006
2730 273 2 -3.2905 2.47848 -7.21988
4118 412 2 -3.14937 2.29556 -8.11923
8085 809 1 -2.33326 1.43572 -8.24378
8084 809 1 -2.02975 2.57869 -8.28132
6407 641 2 -1.41426 1.61449 -7.1721
2543 255 1 -2.27454 2.04556 -7.53785
1495 150 1 -0.202603 1.78469 -7.86284
1496 150 2 -1.16216 2.05054 -7.81358
6408 641 2 -0.903544 2.75142 -7.40002
4162 417 1 -8.60049 3.0531 -7.33823
6880 688 2 -9.64688 3.16682 -7.37647
9398 940 2 -9.40644 3.84271 -7.8215
8054 806 1 -8.36433 3.06092 -8.26941
7468 747 2 -7.41083 2.86185 -8.02367
8053 806 1 -8.36903 3.7765 -7.60138
4168 417 2 -7.35664 3.49459 -7.36601
7467 747 2 -7.12827 4.01115 -7.9538
2952 296 1 -5.87473 3.95353 -8.34949
2951 296 1 -6.36304 2.92591 -8.06164
2953 296 1 -6.40936 2.99773 -7.24506
1191 120 1 -6.10792 3.68889 -7.64976
2959 296 2 -5.06436 3.39625 -7.69141
7407 741 2 -4.92314 4.2156 -7.76578
6206 621 2 -3.0107 3.13702 -7.70213
6205 621 1 -3.76125 4.02023 -8.0253
8623 863 1 -4.04052 3.42964 -7.49023
2382 239 1 -1.90936 3.09014 -7.63186
4120 412 2 -2.72822 3.73863 -8.18518
8082 809 1 -1.6894 3.93143 -7.67432
389 39 2 -0.771735 2.93207 -8.37132
6409 641 2 -0.683204 3.71176 -7.98769
4000 400 2 -0.773657 3.56937 -7.12018
6436 644 2 -9.09768 4.39956 -8.37542
9400 940 2 -9.28088 4.46833 -7.24021
9399 940 2 -8.84153 5.10751 -8.22725
9397 940 2 -8.94589 5.17912 -7.45828
4161 417 1 -8.21051 4.32558 -7.03424
6435 644 1 -8.02667 4.24553 -8.16696
6434 644 1 -7.67046 5.6044 -8.24468
1591 160 1 -7.86865 4.96028 -7.60951
2700 270 2 -6.85445 4.79001 -7.79647
2954 296 1 -6.03766 4.38005 -7.10349
1194 120 1 -5.7141 4.71164 -7.87244
8610 861 2 -6.55606 5.33939 -8.39673
2971 298 1 -5.64613 5.61287 -7.73116
2974 298 1 -5.741 5.31991 -7.04433
2976 298 2 -4.57919 4.99288 -7.84413
291 30 1 -4.0061 4.31415 -7.2643
8624 863 1 -3.51819 4.80604 -7.68477
6203 621 1 -3.32821 5.55114 -7.17355
6209 621 2 -2.40835 4.775 -8.25268
300 30 2 -2.60033 4.27691 -7.59347
299 30 2 -2.22644 5.54824 -7.7808
6410 641 2 -0.123483 4.89883 -8.42572
9602 961 1 -1.39676 4.49279 -8.23668
5190 519 2 -0.425524 4.49773 -7.47741
1739 174 2 -0.245215 5.33606 -7.45497
8081 809 1 -1.26456 5.10534 -7.58142
9693 970 1 -9.77363 5.95843 -7.03402
6438 644 2 -8.64369 5.95527 -8.1354
9692 970 1 -9.63457 6.25075 -7.98109
4350 435 2 -8.74393 6.03458 -7.26186
9963 997 1 -9.52767 6.77394 -7.31974
9821 983 1 -7.64193 5.97467 -7.52301
4349 435 2 -8.30594 6.91466 -8.20285
6439 644 2 -8.41514 6.89386 -7.44943
7462 747 1 -7.40073 6.71626 -7.95057
8278 828 2 -6.01796 6.91241 -8.31044
2698 270 2 -6.72112 5.67624 -7.48067
8609 861 2 -6.42639 6.4945 -7.71369
1195 120 1 -5.25507 6.18552 -8.20351
7405 741 1 -5.39217 6.23229 -7.32064
2972 298 1 -5.07723 6.94332 -7.82381
1196 120 2 -4.369 5.70314 -7.67649
3468 347 2 -4.10916 6.33268 -8.21046
8651 866 1 -3.23941 5.80322 -7.94453
1197 120 2 -4.04948 6.84725 -7.58912
295 30 1 -3.0851 6.57204 -7.58723
5483 549 1 -2.7845 6.91745 -8.38183
2029 203 2 -2.11112 6.31618 -7.3549
296 30 2 -1.83377 6.65552 -8.08002
2305 231 1 -0.803573 6.32934 -8.20355
9604 961 1 -1.13024 5.93298 -7.36299
1736 174 2 -0.0405289 6.05978 -7.03552
1735 174 1 -0.740739 6.99464 -7.54386
2832 284 1 -9.04191 8.11674 -8.2999
7701 771 1 -9.32186 7.30464 -7.95843
2835 284 1 -9.04055 8.09269 -7.47526
4348 435 2 -7.892 8.19105 -8.43096
1958 196 2 -8.1405 7.60977 -7.80273
4752 476 1 -7.20172 7.2538 -7.43352
4347 435 2 -8.02584 8.01771 -7.10128
7461 747 1 -6.86606 7.98781 -8.07638
7463 747 1 -6.99012 7.8892 -7.19603
2019 202 2 -5.79325 7.77303 -8.05685
1380 138 2 -6.10877 7.39832 -7.38398
3831 384 1 -5.08829 7.14377 -7.03388
575 58 1 -4.71472 7.6799 -8.25065
3833 384 1 -4.82995 7.9379 -7.29978
3467 347 2 -3.66279 7.60824 -7.74503
5482 549 1 -2.85565 7.20743 -7.14572
5484 549 1 -2.31866 8.17414 -8.40321
3463 347 1 -2.65283 7.66453 -7.79779
2028 203 2 -1.67423 7.41115 -7.61168
7597 760 2 -1.48273 8.02239 -7.10105
5485 549 1 -2.43232 8.26736 -7.09511
2306 231 2 -1.34335 7.69217 -8.38608
2304 231 1 -0.351404 7.51953 -8.08513
5701 571 1 -0.215993 8.21601 -7.50188
9270 927 2 -9.64458 9.42583 -8.27019
2833 284 1 -8.51681 9.40419 -8.25751
4840 484 2 -9.83307 9.24486 -7.39935
4174 418 1 -8.83601 8.87676 -7.86043
4757 476 2 -7.37352 9.40222 -8.39163
2187 219 2 -7.49169 9.49461 -7.52306
1959 196 2 -7.7222 8.70545 -7.80414
4754 476 1 -6.40393 9.08986 -8.35569
5393 540 1 -6.7192 8.77093 -7.67143
4755 476 1 -6.48568 9.54838 -7.08516
1379 138 2 -5.58401 8.52582 -7.8096
3350 335 2 -5.48373 9.31582 -7.41514
5556 556 2 -5.07238 9.72367 -8.13139
2862 287 1 -4.42509 8.4532 -8.0607
572 58 1 -4.26303 9.09602 -7.50546
2012 202 1 -4.07907 9.3306 -8.22264
1199 120 2 -3.32459 8.45742 -7.52394
1200 120 2 -2.992 9.77542 -7.52809
7027 703 2 -3.09471 9.07576 -8.02599
5015 502 1 -1.81427 9.77161 -8.06123
3464 347 1 -2.10543 8.7564 -7.84612
4403 441 1 -2.05451 9.41803 -7.31585
2026 203 2 -0.842349 9.69393 -8.01427
2027 203 2 -1.13583 8.44323 -7.82594
7596 760 2 -1.04003 9.2022 -7.26549
4838 484 2 -9.38229 -8.82084 -6.50366
2840 284 2 -9.74704 -9.47854 -6.09125
4833 484 1 -8.47846 -9.10469 -5.85138
7151 716 1 -8.37746 -9.39946 -6.63571
2186 219 2 -7.26137 -9.14325 -6.69919
7329 733 2 -7.52447 -9.47207 -5.93117
2190 219 2 -7.13569 -8.67903 -5.74339
5552 556 1 -6.01584 -8.55897 -6.79838
5391 540 1 -6.28357 -9.59383 -6.4084
1375 138 1 -6.09817 -8.87062 -6.00098
3810 381 2 -5.17124 -9.72147 -6.9455
570 57 2 -4.93611 -8.80241 -6.70933
1377 138 2 -5.20144 -9.45841 -6.1172
1276 128 2 -2.88252 -9.24682 -6.93337
6621 663 1 -4.07689 -9.28436 -6.35635
8263 827 1 -4.03575 -8.71378 -5.66628
6626 663 2 -3.061 -9.27502 -5.84104
2261 227 1 -1.89201 -9.54926 -6.81621
1402 141 1 -1.73787 -8.81548 -6.4523
1549 155 2 -2.75774 -8.62844 -6.26175
2262 227 1 -1.99102 -9.09612 -5.69663
7087 709 2 -0.507338 -8.74047 -6.9008
2268 227 2 -0.855478 -9.16834 -6.0634
7157 716 2 -9.03116 -7.93329 -6.6464
4696 470 2 -9.29508 -8.17456 -5.96955
8000 800 2 -8.96703 -7.24979 -6.20901
7324 733 1 -7.92398 -7.87536 -7.01254
2185 219 1 -8.16777 -8.41726 -6.23066
7330 733 2 -7.10435 -8.29172 -6.51897
7154 716 1 -7.83581 -7.43406 -6.34153
1373 138 1 -5.74508 -7.84406 -6.56595
7327 733 2 -6.92876 -7.81521 -5.79874
6696 670 2 -6.68068 -7.25784 -6.39369
5792 580 1 -5.87787 -8.04991 -5.71954
569 57 2 -4.54199 -7.57323 -6.64767
566 57 2 -4.62949 -7.23436 -5.8237
1376 138 2 -4.87011 -8.17281 -6.1658
1274 128 1 -3.54483 -7.83065 -6.96571
6625 663 1 -3.73022 -8.32277 -6.42552
8264 827 1 -3.46997 -7.39118 -6.06911
1410 141 2 -2.50631 -8.18351 -6.91019
2567 257 2 -2.2499 -7.27424 -6.89081
1356 136 2 -2.49857 -7.64695 -6.13482
3614 362 1 -1.56139 -8.07257 -6.03865
1401 141 1 -1.22353 -7.64354 -6.75846
2269 227 2 -0.349611 -8.05352 -6.59584
496 50 2 -0.650052 -8.34941 -5.77813
497 50 2 -0.217708 -7.21041 -6.10708
3221 323 1 -9.7742 -6.8369 -6.74343
7156 716 2 -8.62313 -6.68561 -6.79641
2905 291 1 -9.45152 -5.86531 -6.58537
525 53 1 -9.75837 -6.17394 -5.96239
7996 800 2 -8.80694 -6.50542 -5.74836
7325 733 1 -7.5866 -6.83321 -6.74428
1501 151 1 -7.78592 -6.74542 -5.64867
588 59 2 -8.43552 -5.92137 -6.56205
6695 670 1 -7.42369 -6.10699 -6.2616
1969 197 2 -6.39374 -6.36555 -6.37214
2161 217 1 -5.22902 -6.31948 -6.77063
5791 580 1 -5.50804 -6.98763 -6.30989
564 57 1 -5.07097 -5.79852 -6.21714
561 57 1 -5.45781 -6.40753 -5.77791
9008 901 2 -4.30732 -6.75704 -6.48303
5570 557 2 -4.10079 -5.88687 -6.35134
1355 136 1 -3.19521 -6.54031 -6.45899
271 28 1 -3.07536 -5.96641 -5.84285
2566 257 2 -1.81299 -6.06715 -6.8119
4410 441 2 -2.21678 -6.6177 -6.21125
7210 721 2 -1.81669 -5.72543 -5.93659
4981 499 1 -0.847962 -6.57541 -6.9173
2511 252 1 -0.649608 -5.63748 -6.98402
3615 362 1 -1.16761 -6.90315 -6.17492
2564 257 1 -0.851176 -6.05883 -6.17756
434 44 1 -9.43422 -5.25989 -5.82361
4065 407 1 -9.11881 -4.77507 -6.43943
4066 407 2 -8.43696 -5.54751 -5.72216
4070 407 2 -8.07365 -4.97231 -6.34682
6673 668 1 -7.26325 -5.44148 -5.86887
3418 342 2 -8.04905 -4.38958 -5.63944
7689 769 2 -6.05904 -5.59779 -6.74065
1961 197 1 -6.94876 -4.94151 -6.53762
7747 775 2 -6.1408 -5.43801 -5.89399