ITEM: TIMESTEP
0
ITEM: NUMBER OF ATOMS
3594
ITEM: BOX BOUNDS pp pp pp
-7.1106976681560461e+00 7.1106976681560461e+00
-7.1106976681560461e+00 7.1106976681560461e+00
-7.1106976681560461e+00 7.1106976681560461e+00
ITEM: ATOMS id type x y z
1963 1 -6.61726 -6.65322 -6.61662
212 1 -6.19231 -6.31911 -5.98719
1662 1 -6.01944 -7.04402 -6.07621
2145 1 -4.55377 -6.53644 -6.882
2033 1 -5.08947 -6.74974 -6.39119
2802 2 -5.69177 -5.80693 -6.89292
290 1 -4.01343 -6.16388 -6.36629
1834 1 -3.96576 -7.02234 -6.14398
3413 2 -2.40453 -5.72931 -5.72821
2745 2 -2.63169 -6.35412 -6.23
2906 2 -3.22056 -6.70444 -6.53225
1154 1 -1.81623 -5.76641 -6.54387
999 1 -1.88531 -6.69707 -7.04225
66 1 -1.7513 -7.07037 -6.04086
130 1 -1.30983 -6.11249 -6.07435
1405 1 -1.2583 -6.36484 -6.7419
758 1 -0.388801 -5.92876 -6.48044
2877 2 -0.547651 -7.03854 -6.20234
2099 1 0.307924 -5.88512 -6.93224
2148 1 0.208892 -6.59169 -6.87414
1478 1 0.763287 -6.20924 -6.17063
2192 1 1.55867 -6.61211 -5.91997
2917 2 1.67386 -5.92775 -6.7784
655 1 1.19499 -6.85921 -6.6654
2534 1 2.35984 -6.36772 -5.7944
2250 1 3.00771 -6.3607 -6.58429
2147 1 2.18726 -7.0927 -6.61035
2546 1 3.35298 -6.87206 -5.84079
2059 1 3.53797 -5.94542 -5.86377
3266 2 4.52066 -6.19348 -5.82826
2997 2 4.31818 -6.29651 -6.61168
2793 2 3.7504 -6.91643 -6.97312
29 1 5.7121 -6.4013 -6.20268
2195 1 5.276 -6.13829 -7.03013
242 1 6.21193 -5.85761 -6.56676
3132 2 6.77306 -6.98826 -5.99573
2721 1 7.03167 -5.79245 -6.37536
937 1 -6.44623 -5.57657 -6.05829
2588 1 -6.61503 -5.3478 -6.88985
283 1 -6.11328 -4.86457 -6.50987
3454 2 -5.13646 -5.60046 -6.50986
2505 1 -5.37999 -4.32351 -6.67039
512 1 -5.56513 -4.61168 -5.80494
3299 2 -4.60821 -5.11132 -6.17249
769 1 -3.64895 -4.79783 -6.65731
2160 1 -4.31354 -4.76041 -7.07895
2437 1 -3.44477 -5.50402 -5.7393
1230 1 -3.33259 -5.52737 -6.59855
88 1 -2.49683 -4.931 -6.25421
2231 1 -3.15687 -4.35588 -5.88096
1019 1 -2.75404 -5.64608 -7.10014
625 1 -1.02258 -4.39668 -5.87062
1827 1 -1.85647 -4.36259 -5.76933
2083 1 -1.53341 -4.8489 -6.62198
1385 1 -1.12369 -5.21274 -6.04856
3260 2 -0.53456 -5.23956 -7.05656
3475 2 -0.251907 -4.64488 -6.7276
444 1 0.316237 -5.52237 -6.00867
3028 2 0.0941821 -4.428 -6.1271
2260 1 1.81075 -4.43703 -6.50006
2058 1 0.720109 -5.34605 -6.71115
557 1 1.07427 -4.63582 -6.74005
493 1 2.97031 -5.22612 -7.0281
3565 2 2.28886 -5.54802 -6.29068
1687 1 3.43867 -4.72761 -6.42883
1888 1 4.01247 -5.21581 -6.27983
709 1 3.65739 -5.6216 -7.05251
1368 1 5.49168 -4.34082 -6.73969
2401 1 4.55872 -4.79413 -6.13502
2339 1 5.49826 -5.39286 -6.37025
155 1 4.85378 -5.14574 -6.77961
3177 2 6.35961 -4.89607 -7.02497
3336 2 6.85899 -4.49134 -6.39608
2017 1 6.46547 -5.4005 -5.80457
626 1 5.92883 -4.77413 -5.87997
2862 2 -6.55524 -4.1729 -5.81479
1814 1 -6.41924 -3.62013 -6.84404
1452 1 -6.51501 -2.96684 -6.00222
1669 1 -4.68704 -3.98429 -6.22701
3104 2 -5.01365 -3.23285 -7.05991
1231 1 -5.81006 -3.51979 -6.30875
25 1 -3.81023 -3.8882 -5.98907
2134 1 -3.82712 -3.81036 -6.83904
784 1 -3.55581 -3.26555 -6.36066
3151 2 -2.54647 -3.63896 -6.4234
2854 2 -2.85638 -4.13847 -7.01398
739 1 -3.10888 -2.98456 -5.79295
2990 2 -1.94 -3.31836 -5.89726
2406 1 -1.34256 -4.12072 -6.76719
75 1 -0.876057 -3.67019 -6.36027
311 1 -1.36873 -3.07589 -6.80795
73 1 -0.0768825 -3.27556 -6.51678
2614 1 0.537267 -3.80654 -7.07741
374 1 0.495601 -2.99147 -5.76131
2079 1 1.3242 -3.65001 -6.26633
1997 1 0.823337 -3.11904 -6.69003
779 1 2.78514 -4.12759 -6.40139
2213 1 2.46254 -3.68241 -5.81919
2889 2 2.2717 -3.02178 -6.83524
1758 1 3.22339 -3.52374 -6.95294
1491 1 3.32487 -3.66458 -6.09402
621 1 4.005 -3.95972 -5.78586
3102 2 4.26236 -4.04978 -6.83349
3215 2 4.82612 -3.686 -6.43569
3273 2 5.33461 -3.13968 -6.00676
1671 1 6.33902 -3.61758 -6.9729
523 1 6.27815 -3.79806 -5.96258
2204 1 6.82749 -3.24917 -6.16145
3190 2 -6.76275 -1.84595 -6.18484
2521 1 -5.92556 -2.71927 -6.61039
1416 1 -5.88377 -1.76554 -6.76696
1901 1 -5.55323 -2.39468 -6.09484
2841 2 -4.59408 -2.78114 -6.50127
2653 1 -5.11764 -1.60929 -6.19446
1264 1 -5.07371 -1.89303 -7.10156
3312 2 -4.23943 -2.5242 -5.91319
1544 1 -4.48406 -1.57043 -6.56729
1062 1 -3.89128 -1.96766 -6.95783
1582 1 -3.42218 -2.68109 -6.936
1538 1 -2.43049 -2.44066 -6.28172
2325 1 -2.55227 -1.79915 -5.78066
3233 2 -2.18663 -1.45473 -6.69623
1369 1 -3.20573 -2.02832 -6.44579
2355 1 -1.52223 -2.38421 -6.42487
2235 1 -0.967005 -1.73287 -6.48651
1159 1 -0.654653 -2.76135 -6.03012
3082 2 -0.129119 -2.31471 -6.90065
2791 2 0.281443 -1.998 -6.23906
1150 1 1.31336 -2.56076 -6.1359
2599 1 1.50244 -1.78929 -6.42677
2888 2 2.66596 -2.64729 -6.28476
381 1 2.40412 -1.66808 -6.75235
476 1 2.1907 -1.69583 -5.89385
1781 1 3.46849 -2.09008 -6.95168
1406 1 3.71521 -2.74939 -6.48367
2497 1 4.33789 -2.3152 -5.93325
806 1 3.7615 -1.68673 -6.31889
1162 1 4.51283 -2.5914 -6.83268
1574 1 5.23713 -2.0823 -6.33234
1063 1 5.26552 -2.29322 -7.05275
507 1 6.08532 -2.12951 -6.16045
1122 1 6.01379 -2.79912 -6.76329
1893 1 6.0542 -1.42592 -6.64953
2929 2 7.0588 -2.25572 -6.72849
3560 2 -6.33441 -1.3759 -5.80046
1032 1 -6.06138 -0.1866 -6.90349
2682 1 -6.80559 -0.804917 -6.73669
2516 1 -5.90503 -0.269366 -5.93328
2137 1 -6.90632 -0.204437 -5.76846
163 1 -5.80436 -0.983238 -6.50485
2605 1 -5.20352 -0.716364 -5.96635
2779 2 -3.8344 -0.276637 -6.15272
2822 2 -4.41503 -0.331314 -6.64607
1472 1 -3.55909 -1.21545 -6.72435
1564 1 -3.23407 -1.30743 -5.85063
124 1 -2.28233 -0.142255 -6.68788
2251 1 -2.80443 -0.489917 -5.96258
2400 1 -0.668476 -1.37262 -5.95129
3224 2 -1.86566 -1.04583 -6.17359
1967 1 -0.977346 -0.41163 -6.7756
1341 1 -0.155278 -0.975445 -6.60395
604 1 -0.463576 -0.421758 -6.11223
1435 1 1.17375 -1.29729 -7.07468
3472 2 0.676444 -1.41461 -5.77437
2323 1 1.39134 -0.0815766 -6.39514
929 1 0.858512 -0.781651 -6.60455
1402 1 1.81456 -0.773916 -6.06437
2130 1 3.18395 -1.14745 -6.29436
3382 2 2.84029 -0.146053 -6.42192
2765 2 2.40359 -0.606449 -7.05484
592 1 4.03763 -0.775354 -6.09968
2491 1 3.9265 -0.565157 -6.9529
3189 2 5.11919 -0.920603 -6.52354
2472 1 4.85554 -0.0181144 -7.04901
2816 2 5.41024 -0.508958 -5.94125
2801 2 4.55357 -1.36455 -6.88333
457 1 6.7042 -0.489111 -6.22997
1819 1 6.10621 -0.538971 -6.963
3279 2 -6.39306 -6.24308 -5.00317
3327 2 -7.07874 -6.47485 -5.43693
126 1 -5.87407 -6.9119 -4.35921
3285 2 -6.25166 -5.80713 -4.42196
2702 1 -5.32765 -6.31548 -5.51876
235 1 -4.60171 -5.94884 -4.90882
1756 1 -5.15516 -6.35001 -4.46537
2592 1 -5.74431 -6.96781 -5.26312
2004 1 -3.60893 -6.19515 -5.44114
953 1 -4.41052 -6.24578 -5.61871
3049 2 -3.90158 -6.71802 -4.48685
908 1 -3.75837 -5.78526 -4.63486
505 1 -3.29212 -7.03967 -5.44704
1823 1 -2.41189 -6.89702 -5.09791
1115 1 -2.99245 -6.10882 -4.73957
1855 1 -2.94169 -6.91945 -4.62095
411 1 -1.37594 -6.24402 -4.48988
720 1 -1.65518 -6.70772 -5.1781
674 1 -0.985884 -5.97638 -5.28861
2111 1 -0.363204 -6.89051 -4.39143
3594 2 -0.275719 -6.66013 -5.59347
3315 2 0.18799 -6.25549 -4.93561
2722 1 1.92808 -6.33198 -5.01453
3065 2 0.785612 -5.86293 -4.61382
55 1 1.25641 -6.7064 -4.90736
237 1 1.42254 -5.81273 -5.41724
3328 2 2.8617 -7.10623 -4.56874
838 1 2.59735 -5.86427 -4.84443
1338 1 3.12987 -6.26128 -5.29415
67 1 3.96065 -6.304 -4.84534
2196 1 4.41252 -6.69076 -4.27568
3322 2 4.97109 -5.75679 -5.52007
993 1 4.58916 -5.69614 -4.34951
854 1 5.42186 -6.93709 -5.66409
1681 1 5.41163 -6.54286 -4.95239
957 1 4.62915 -6.81554 -5.10474
193 1 5.99135 -6.03204 -5.59208
699 1 6.25848 -6.26873 -4.76606
598 1 6.7028 -6.95879 -4.63128
780 1 -7.04149 -4.49495 -4.63493
1927 1 -6.07188 -4.82035 -4.76694
211 1 -6.73304 -5.11752 -5.42528
1316 1 -5.08611 -5.18961 -4.98788
115 1 -5.78477 -5.41242 -5.64001
2729 1 -5.25115 -4.38035 -5.02054
3084 2 -4.22508 -4.82798 -5.50566
3432 2 -3.99021 -4.36111 -4.93315
1493 1 -2.50303 -4.68449 -5.40574
2469 1 -3.15568 -5.23593 -4.91455
3351 2 -1.99069 -5.63727 -5.11203
844 1 -2.49682 -4.5007 -4.61005
2992 2 -1.69772 -5.10789 -4.75304
1951 1 -0.656063 -5.62858 -4.64753
3289 2 -1.28066 -4.66505 -4.34065
646 1 -0.235925 -4.94895 -4.51446
2701 1 -0.471032 -4.79953 -5.19093
464 1 -0.374554 -5.40014 -5.63063
1306 1 0.425185 -5.06441 -5.05256
2149 1 1.03145 -5.02436 -5.5592
1448 1 1.66818 -4.43449 -5.55951
330 1 0.821985 -4.6796 -4.2824
1585 1 1.57014 -4.64607 -4.677
2795 2 2.61036 -5.158 -5.67037
3309 2 3.04807 -4.66753 -5.17248
2624 1 2.0901 -5.32552 -4.68963
2249 1 3.46656 -5.41216 -4.33205
2408 1 3.87138 -5.4274 -5.26799
1400 1 4.09395 -4.70514 -5.40769
324 1 4.52231 -4.55079 -4.73643
2875 2 5.40507 -5.28283 -5.11431
9 1 6.71098 -5.56851 -5.06455
2871 2 5.87122 -4.93072 -4.59641
2613 1 6.5912 -4.48482 -5.16999
3365 2 -6.30619 -3.77981 -5.16892
3360 2 -5.83234 -3.28007 -4.72131
2371 1 -5.07753 -3.84276 -5.66509
2445 1 -5.35996 -3.07867 -5.65957
706 1 -4.86037 -2.85764 -4.88884
2944 2 -3.58465 -4.03806 -4.37123
2443 1 -4.04816 -3.26456 -5.32333
403 1 -4.27406 -3.05802 -4.39494
22 1 -2.25469 -3.68777 -4.81398
538 1 -2.58099 -3.06911 -4.54787
2475 1 -3.02442 -3.51184 -5.27025
154 1 -1.25478 -3.65806 -4.39357
62 1 -1.29615 -3.85986 -5.2761
3160 2 -1.60583 -2.91793 -5.34313
1442 1 -0.643658 -3.66958 -5.67159
2494 1 -0.587783 -4.04813 -4.80727
2114 1 -0.143365 -3.06667 -5.17985
2715 1 -0.274757 -3.30973 -4.33898
2949 2 0.386239 -3.99544 -5.60774
3096 2 0.935044 -3.83016 -4.93434
1233 1 1.64544 -3.18484 -5.63365
3081 2 1.48025 -3.37173 -4.27982
551 1 2.31911 -3.92494 -4.95072
439 1 3.05723 -3.32102 -5.34989
3140 2 3.54442 -4.19965 -4.6239
960 1 4.04155 -3.0285 -5.42385
2110 1 3.78115 -2.98687 -4.64517
57 1 5.41695 -4.2171 -5.67557
958 1 4.78481 -4.26457 -5.44559
2063 1 5.17687 -4.02401 -4.59757
1023 1 5.1363 -3.13203 -4.3214
2152 1 4.61484 -3.52282 -5.04793
502 1 5.91921 -3.83112 -5.11007
5 1 6.73636 -3.29554 -5.13001
284 1 -5.82374 -2.28591 -5.26776
2377 1 -6.61451 -2.46404 -5.19054
136 1 -6.8301 -2.83915 -4.46971
2415 1 -6.25205 -1.93921 -4.68881
531 1 -5.06877 -2.0201 -5.32211
2078 1 -4.60286 -2.23207 -4.47013
1102 1 -5.38074 -1.79624 -4.45168
3505 2 -3.66676 -1.79797 -4.71971
2947 2 -3.78252 -2.16641 -5.47289
1686 1 -3.45217 -2.82317 -4.65593
654 1 -2.80096 -2.50603 -5.15459
3581 2 -3.11583 -1.51098 -4.2844
920 1 -2.28317 -1.99244 -5.0115
1787 1 -1.20761 -2.01427 -5.68183
3198 2 -1.24235 -2.68329 -4.61621
106 1 -1.40059 -1.63794 -4.78521
1208 1 -0.396042 -2.26928 -5.31366
2413 1 -0.455152 -1.53499 -4.89926
629 1 0.361023 -2.09387 -4.84283
183 1 0.889685 -2.82581 -5.10814
2329 1 1.51221 -2.20564 -5.26059
2330 1 1.44925 -1.997 -4.37555
1680 1 2.11691 -2.80971 -5.09249
1531 1 2.24693 -1.81312 -5.05991
1861 1 3.08173 -2.69238 -4.30108
950 1 2.22864 -1.72161 -4.30422
3430 2 3.25622 -2.04511 -5.37854
659 1 4.32953 -2.47232 -4.34326
3167 2 3.65164 -1.69135 -4.9555
595 1 4.71084 -2.50644 -5.09119
1925 1 5.40041 -1.66476 -5.67202
3219 2 5.57601 -2.72439 -5.47199
976 1 4.83821 -1.80306 -4.57754
1862 1 6.6024 -2.48475 -5.63475
2009 1 6.32328 -1.42241 -5.63278
1846 1 5.89035 -1.50367 -5.05915
2830 2 5.84936 -2.53637 -4.75704
3180 2 6.488 -2.29038 -4.35987
1174 1 6.87336 -1.73735 -5.06455
3277 2 -6.01737 -1.04262 -5.14882
1050 1 -6.76694 -0.278834 -4.85849
1490 1 -6.80632 -1.06105 -4.43901
1979 1 -4.77255 -1.334 -5.34846
3487 2 -5.33785 -0.770464 -4.80394
2899 2 -4.92746 -0.291277 -4.31343
1462 1 -4.10676 -1.08102 -5.67569
1695 1 -3.81672 -0.107822 -4.35178
1885 1 -4.46793 -0.371103 -5.31372
1049 1 -3.68886 -0.631658 -5.00992
1426 1 -4.33487 -1.28746 -4.47282
1820 1 -2.80172 -0.95714 -5.2358
1643 1 -2.97559 -0.221982 -4.72
903 1 -2.17337 -1.16269 -4.75451
2669 1 -2.27853 -0.0843678 -4.48425
2234 1 -2.55451 -0.0172848 -5.41321
3148 2 -0.847971 -0.330401 -5.15336
2046 1 -1.46558 -0.696294 -4.3764
3070 2 -1.68968 -0.617241 -5.57089
2684 1 -0.0238015 -0.899802 -5.28836
49 1 -0.581245 -0.972401 -4.28367
2090 1 0.408731 -0.327202 -4.60518
774 1 0.214846 -1.14788 -4.33623
1387 1 0.799822 -0.196006 -5.61392
3063 2 1.54723 -0.65158 -4.62937
3130 2 1.21682 -1.01955 -5.30958
1626 1 2.84275 -0.33907 -4.99161
2086 1 2.78888 -1.08575 -5.53302
541 1 2.60103 -1.15775 -4.58405
2121 1 2.26742 -0.433039 -5.52351
1190 1 3.62967 -0.529203 -5.09611
459 1 4.35784 -0.256052 -5.45729
2951 2 3.93819 -1.21353 -4.38569
1996 1 4.1466 -0.198264 -4.61974
1006 1 4.5517 -1.28656 -5.47194
2531 1 5.52886 -1.20041 -4.51081
2317 1 4.91996 -0.769157 -4.77659
1850 1 6.57928 -1.02888 -4.46944
3567 2 5.85549 -0.31396 -5.45972
2775 2 6.36557 -0.0184659 -4.87716
272 1 6.86976 -0.915826 -5.41673
690 1 -7.06692 -6.21506 -4.05331
2535 1 -6.3226 -6.7007 -3.61383
2672 1 -6.52341 -7.01781 -2.85842
2587 1 -6.49111 -6.00725 -3.20967
2252 1 -5.17377 -6.63505 -3.72479
886 1 -5.63749 -6.1434 -3.10183
2258 1 -4.43958 -6.36742 -3.59802
70 1 -4.26003 -6.78532 -2.93255
3342 2 -3.43933 -6.49499 -3.66688
540 1 -2.36893 -6.65404 -4.15811
1806 1 -2.36342 -5.71829 -4.06288
2067 1 -2.12031 -6.456 -3.31778
3173 2 -3.21213 -5.99729 -3.22665
3071 2 -1.31097 -6.82968 -3.6813
1024 1 -0.668442 -5.75405 -3.86197
2764 2 -0.697469 -6.60159 -2.98701
2446 1 0.0039809 -6.57708 -3.69227
2311 1 0.443635 -5.92297 -3.29973
3393 2 1.43619 -5.73641 -3.87125
2345 1 0.940558 -6.85436 -3.97215
722 1 1.87656 -6.52894 -3.31018
137 1 0.883283 -6.58186 -3.15254
642 1 2.12738 -6.31902 -4.21477
2577 1 2.6417 -5.86898 -3.66134
2039 1 2.74204 -6.9165 -3.13427
3013 2 3.3442 -6.54672 -3.98821
3345 2 4.30324 -5.92114 -2.98147
2979 2 3.84979 -6.01884 -3.4572
2720 1 4.94231 -6.44336 -3.59161
1970 1 5.52359 -6.17023 -4.2275
3587 2 5.7932 -6.93988 -3.72982
286 1 5.56388 -6.1391 -3.15695
1203 1 6.25564 -5.83042 -3.8506
3169 2 6.46871 -6.61014 -3.28147
12 1 -6.56627 -4.38642 -4.0001
2980 2 -5.84249 -5.57463 -3.9206
2197 1 -7.10117 -5.60438 -3.43874
2156 1 -6.40528 -5.03911 -3.29433
2511 1 -5.00793 -4.69127 -4.20723
2402 1 -4.61151 -5.63785 -4.02496
2783 2 -5.04734 -4.92653 -2.87835
2763 2 -5.49986 -5.26282 -3.41995
76 1 -4.18545 -5.04567 -4.21312
717 1 -4.37087 -4.43332 -3.54841
436 1 -4.30537 -5.49946 -3.33965
389 1 -3.46063 -5.29653 -3.95769
1942 1 -3.49326 -4.62045 -3.44149
1738 1 -2.73829 -4.86626 -4.02181
1107 1 -2.81765 -4.63074 -3.07695
1277 1 -2.0058 -4.72134 -3.36422
3004 2 -0.849155 -4.48775 -3.63017
15 1 -1.61368 -5.6489 -3.69002
112 1 -1.36713 -5.60803 -2.98753
1271 1 -0.406867 -5.41645 -3.00926
2771 2 -0.399244 -4.30225 -3.10619
897 1 0.21105 -5.20462 -3.71572
874 1 0.690776 -4.70066 -3.14619
3252 2 1.75944 -5.07902 -3.35805
2139 1 2.70615 -5.02391 -4.107
1454 1 3.10053 -5.32277 -3.19001
2515 1 3.04727 -4.4082 -3.41094
801 1 3.70021 -4.83789 -3.67248
939 1 3.88532 -4.6483 -2.88361
1417 1 4.60912 -4.90301 -3.94428
419 1 5.34117 -5.5706 -3.66819
1873 1 5.11754 -4.63427 -3.30809
3092 2 6.21747 -4.68373 -3.97528
259 1 7.01977 -5.18666 -4.20962
2214 1 5.88452 -5.3701 -3.01642
3573 2 6.83756 -4.35302 -3.29287
1134 1 5.92005 -4.60914 -2.86502
407 1 -7.01981 -3.53109 -4.04504
649 1 -6.13559 -3.53088 -3.34759
129 1 -5.78385 -4.12375 -3.85737
1562 1 -4.82809 -3.86931 -4.20571
1329 1 -5.16142 -4.01059 -3.4732
2758 2 -5.30319 -3.0282 -4.01186
880 1 -3.57156 -3.98179 -2.94139
2717 1 -4.19641 -3.48742 -3.61496
1748 1 -3.93444 -3.07562 -2.92349
3419 2 -3.0837 -3.64063 -3.82552
707 1 -1.94617 -3.9478 -3.95031
1742 1 -2.00241 -4.1135 -2.87093
2902 2 -2.84306 -3.3144 -3.17082
681 1 -0.789809 -3.29289 -3.67589
839 1 -1.89717 -2.91058 -3.76488
1398 1 -1.41963 -3.39199 -3.15968
2557 1 0.100575 -4.01455 -4.00964
2186 1 0.274358 -2.97586 -3.36104
1935 1 0.737311 -3.77929 -3.56009
1449 1 1.5308 -4.08369 -3.46034
250 1 1.31476 -3.02218 -3.06554
420 1 2.18709 -4.24074 -4.04621
379 1 2.73215 -3.67143 -4.25259
1371 1 2.63008 -3.76839 -3.47401
971 1 1.99076 -3.56803 -3.00041
600 1 3.41393 -3.94481 -3.03781
1833 1 3.24764 -3.24231 -3.70342
2938 2 3.94794 -3.95211 -4.14986
3507 2 4.34209 -3.67502 -3.60936
1141 1 5.35191 -3.88671 -3.73499
3304 2 4.78504 -3.17905 -3.14451
1193 1 6.3487 -3.59263 -4.14306
666 1 6.00493 -3.76034 -2.93839
2556 1 6.01753 -3.32654 -3.59142
1027 1 6.83642 -2.93638 -3.4206
2094 1 -6.00563 -2.12203 -4.07141
2361 1 -6.53045 -2.7014 -3.55694
2412 1 -5.9447 -1.89916 -3.07732
3561 2 -5.12864 -2.54182 -3.3883
1677 1 -4.35231 -1.72193 -3.73112
2179 1 -4.01232 -2.59753 -3.7849
418 1 -3.57505 -2.20188 -3.41287
32 1 -2.90543 -2.56588 -3.98207
694 1 -2.21981 -2.08835 -4.13465
299 1 -2.75779 -2.092 -3.28616
3211 2 -0.771983 -2.34749 -4.126
2074 1 -1.55475 -1.6372 -3.90222
1939 1 -0.93515 -2.46372 -3.14963
636 1 -1.84509 -1.94493 -3.14725
2357 1 -1.17924 -1.45721 -2.98691
2920 2 -0.180779 -1.87815 -3.73332
1530 1 0.547058 -2.77175 -4.15869
3388 2 0.318032 -1.57762 -3.24228
1374 1 0.839124 -1.62586 -4.17312
1481 1 0.992199 -2.35743 -3.47483
1322 1 1.82325 -1.44371 -3.30527
2969 2 2.0264 -2.82178 -3.91094
1031 1 3.12511 -1.86194 -4.07306
3427 2 2.42609 -2.30015 -3.16327
615 1 3.65333 -2.24961 -3.81782
2219 1 3.67684 -2.72199 -3.20873
102 1 4.27199 -1.77915 -3.33295
1430 1 4.84481 -2.34617 -3.58473
677 1 5.45404 -1.91496 -3.95713
1345 1 5.3795 -1.62679 -3.19373
3441 2 6.97157 -1.74374 -3.81629
2559 1 6.3149 -2.00797 -3.04345
2396 1 5.84796 -2.65915 -3.52707
2206 1 -6.00782 -1.11485 -3.85104
1736 1 -6.21251 -0.147993 -4.06262
2089 1 -6.39825 -0.343838 -3.17573
3039 2 -6.86363 -1.23781 -3.11037
1990 1 -5.16457 -1.40619 -3.64865
334 1 -4.55473 -1.0609 -3.14519
2309 1 -5.61094 -0.710084 -3.11606
2224 1 -3.97246 -0.796415 -3.81382
664 1 -3.64565 -1.32848 -3.15069
1737 1 -3.47201 -0.242236 -3.18842
3060 2 -2.88104 -1.05213 -3.83362
3040 2 -1.98895 -0.661992 -2.90722
3061 2 -2.30505 -0.84849 -3.50859
2313 1 -1.56652 -0.0740838 -3.82951
2424 1 -0.682051 -0.187975 -3.2667
1239 1 -0.939534 -0.942758 -3.54683
135 1 -0.0737321 -0.529287 -3.63238
1881 1 0.507528 -0.256817 -3.35375
238 1 1.20946 -0.873793 -3.53811
1678 1 3.10134 -0.799247 -3.99582
2776 2 2.02706 -0.31506 -4.0326
1100 1 2.61163 -1.07217 -3.38929
423 1 3.432 -1.16514 -3.23235
185 1 3.51112 -0.385511 -3.38633
3288 2 4.49082 -0.952223 -3.8446
54 1 5.76055 -0.443103 -4.11119
2866 2 4.89845 -0.65599 -3.30966
202 1 6.0502 -1.23318 -3.77659
1998 1 6.9513 -0.484891 -3.72426
1176 1 6.36436 -1.09312 -2.90949
2522 1 6.2071 -0.307743 -3.34923
2229 1 -6.09913 -5.72853 -2.50005
2006 1 -6.12754 -6.44195 -2.04732
2710 1 -4.89581 -6.02812 -2.55366
3364 2 -5.13586 -7.09003 -2.05801
3484 2 -4.67911 -6.63794 -1.47958
1529 1 -5.45569 -6.04251 -1.51675
1353 1 -4.09607 -5.94488 -2.62831
1519 1 -3.87629 -6.91075 -2.2398
1289 1 -3.3659 -6.97993 -1.54007
983 1 -3.53769 -6.1647 -1.96922
2172 1 -3.00993 -6.80201 -2.39681
2486 1 -2.73043 -6.14332 -1.64347
1441 1 -2.24027 -6.59698 -2.17829
1934 1 -1.61476 -6.40036 -2.52408
1087 1 -0.826349 -6.09852 -1.53548
2627 1 -1.7386 -6.13091 -1.64609
2495 1 -1.27152 -6.87994 -1.83548
2976 2 -0.14459 -6.40916 -2.35473
3572 2 0.243984 -5.87451 -1.90127
10 1 0.988274 -6.44324 -2.31594
1090 1 1.5169 -5.84895 -2.58573
359 1 1.04271 -6.86255 -1.58266
1457 1 1.53861 -6.27826 -1.42215
2911 2 1.93406 -7.10209 -2.47612
3268 2 2.93341 -6.5701 -1.55213
1262 1 2.44914 -5.91833 -2.80461
3059 2 2.33615 -6.80638 -1.84988
2299 1 3.45158 -6.27702 -2.54756
2109 1 3.77061 -7.00618 -1.88934
1065 1 4.13085 -6.95547 -2.71246
2726 1 4.20896 -6.38457 -2.05428
2282 1 5.00139 -6.62006 -2.719
247 1 5.77747 -6.35803 -2.43334
1136 1 4.87131 -6.17606 -1.60961
1252 1 6.17389 -6.71142 -1.85999
3282 2 6.9171 -6.49375 -2.68897
2999 2 7.01692 -6.13302 -1.99587
2008 1 -6.06234 -4.41116 -1.99033
2430 1 -6.04145 -4.41527 -2.83303
2001 1 -6.58194 -5.00842 -2.39732
1912 1 -7.08846 -4.44928 -1.83432
2873 2 -4.64467 -4.39117 -2.32493
1097 1 -5.63088 -5.2447 -1.92783
1524 1 -4.44797 -5.57014 -1.96229
2634 1 -3.72366 -5.36611 -1.9404
2782 2 -3.95059 -4.37618 -1.94041
1886 1 -3.68452 -5.08228 -2.79982
2865 2 -2.69968 -5.60098 -2.84204
3420 2 -2.28813 -5.46684 -2.32225
613 1 -2.96367 -4.43633 -2.33055
3064 2 -1.87922 -5.12471 -1.84289
1890 1 -1.0485 -5.58605 -2.34534
3554 2 -1.43586 -4.54769 -1.45435
2687 1 -1.50128 -4.69378 -2.7289
2012 1 -0.631668 -4.79511 -2.23347
1246 1 0.342817 -4.91278 -2.42719
1320 1 0.0161846 -4.82723 -1.77295
796 1 0.836726 -5.45204 -2.80783
448 1 1.41961 -4.86213 -2.12819
1654 1 0.851907 -4.4835 -1.86181
2544 1 2.99162 -5.57518 -2.20753
3083 2 2.31463 -4.79598 -2.67772
652 1 2.0352 -4.68867 -1.60652
2392 1 1.95422 -5.60738 -2.01714
47 1 3.10737 -5.06664 -1.56096
866 1 3.78573 -5.26691 -2.23111
1310 1 4.02346 -4.34504 -2.11242
1043 1 4.04843 -4.92559 -1.48543
3527 2 4.8286 -5.41933 -2.64035
3152 2 5.05244 -5.03135 -2.0635
2785 2 5.57166 -4.81488 -1.56107
1932 1 6.17372 -5.38963 -2.27032
2501 1 6.27544 -4.33411 -2.18061
1843 1 6.70461 -5.30133 -2.81864
264 1 6.73271 -5.00592 -1.997
3537 2 -6.988 -3.85323 -2.74241
3154 2 -6.323 -3.28624 -1.55958
2790 2 -6.83288 -3.39143 -2.08681
1128 1 -5.73788 -3.65413 -2.40796
1798 1 -5.26243 -3.82078 -1.70678
2709 1 -5.17307 -2.85949 -2.17438
2010 1 -4.81967 -3.40988 -2.70027
617 1 -4.22939 -3.17236 -2.04945
723 1 -3.45408 -3.38936 -2.2882
1152 1 -1.9883 -3.93106 -2.06683
441 1 -2.71043 -3.84347 -1.67172
2813 2 -2.35647 -3.06239 -2.58123
1731 1 -1.19979 -3.8993 -2.3953
1507 1 -0.856796 -3.34827 -1.91138
375 1 -0.682298 -3.05624 -2.72105
1940 1 -0.370002 -4.17912 -1.49769
3043 2 0.212697 -3.81254 -2.5566
3118 2 0.56445 -3.49667 -2.05566
1694 1 1.61619 -4.00625 -2.33567
1860 1 1.8134 -3.84449 -1.58279
3406 2 0.938262 -3.03446 -1.70157
2987 2 2.7888 -4.24941 -2.34061
3463 2 3.06409 -3.96049 -1.77209
1124 1 2.07886 -3.23765 -2.02483
1714 1 2.85891 -3.15509 -2.69296
60 1 4.13026 -3.11287 -1.71813
319 1 3.9362 -3.53139 -2.44192
2389 1 4.60042 -4.26171 -2.73965
361 1 5.40396 -3.99646 -2.19989
2354 1 4.94954 -3.46173 -1.82162
1558 1 6.05225 -3.45518 -2.08388
822 1 -6.57205 -2.19635 -1.83085
2106 1 -7.03619 -2.3748 -2.71193
817 1 -6.10088 -2.77221 -2.71006
2880 2 -4.73918 -2.20974 -2.71085
1889 1 -5.57066 -1.44241 -2.68521
51 1 -5.79774 -2.15104 -2.14713
1841 1 -3.56757 -2.73209 -1.73001
2956 2 -4.18708 -1.8467 -2.21086
3381 2 -3.75308 -1.44069 -1.62876
1839 1 -3.33385 -2.50684 -2.69836
1566 1 -2.99248 -1.51287 -2.75037
2383 1 -2.43243 -2.77163 -1.42962
1928 1 -2.21676 -1.92902 -1.55345
2645 1 -2.93984 -2.25688 -2.08648
1476 1 -2.30734 -1.46526 -2.28087
2739 2 -1.70695 -2.66614 -2.38525
3375 2 -1.24705 -2.25942 -1.73753
1567 1 -0.59283 -1.89735 -2.67646
1684 1 -0.183364 -2.57158 -2.10004
1655 1 0.607258 -2.52048 -2.49358
1571 1 0.24783 -2.21989 -1.68099
998 1 1.74459 -2.71577 -2.41832
818 1 1.1476 -1.95944 -1.80449
2388 1 1.45117 -1.92588 -2.69424
3253 2 2.85247 -1.92043 -2.66043
1084 1 2.1267 -2.20777 -1.82479
180 1 2.12308 -1.48813 -2.06886
2208 1 3.02607 -2.8012 -1.84123
3032 2 3.25137 -1.61102 -1.96431
131 1 4.46382 -2.14579 -1.76845
1805 1 3.79274 -2.51238 -2.25937
1549 1 4.39485 -2.12222 -2.67328
3525 2 5.21379 -2.69911 -2.6886
3139 2 5.43755 -2.27339 -1.89919
816 1 5.76266 -1.43866 -2.50663
1362 1 6.30385 -2.83562 -2.80737
1330 1 6.47746 -2.6846 -1.92045
1089 1 6.74227 -1.81023 -2.1505
3261 2 -6.72257 -1.12591 -2.40983
3481 2 -6.24088 -0.928914 -1.818
99 1 -4.6788 -0.777468 -2.33088
1026 1 -5.23394 -1.30041 -1.86615
514 1 -5.39099 -0.314912 -2.46086
1396 1 -4.05716 -0.422393 -1.68248
39 1 -3.79907 -0.765086 -2.6504
1789 1 -2.20119 -0.552582 -1.77074
753 1 -2.93644 -0.608524 -2.39423
3243 2 -3.13147 -1.11079 -1.42744
1910 1 -0.688602 -0.834461 -2.7028
2625 1 -1.39329 -1.28463 -2.0326
3099 2 -1.43838 -0.0867157 -2.43886
1957 1 -0.731585 -0.694047 -1.86441
712 1 -0.255849 -1.41134 -1.74889
3206 2 0.321987 -1.14204 -2.63769
1225 1 0.00410691 -0.27261 -1.69564
2737 2 0.804 -0.900382 -2.09632
401 1 1.50999 -0.450387 -2.8011
2981 2 1.29501 -0.614317 -1.52789
2273 1 2.32481 -0.849421 -2.48795
309 1 2.59627 -0.87011 -1.67982
2291 1 3.17328 -0.687562 -2.423
3436 2 3.71535 -1.21833 -1.43934
1705 1 4.12059 -0.276606 -2.68902
524 1 3.95391 -1.29571 -2.57273
2365 1 3.5938 -0.227664 -1.90366
59 1 4.84347 -1.36571 -2.38658
453 1 4.57879 -0.397844 -1.90402
3021 2 5.32631 -0.304826 -2.82469
1033 1 4.97397 -1.08556 -1.6641
2292 1 6.82728 -1.16295 -1.62764
1427 1 6.87979 -0.434308 -1.93326
2617 1 6.76901 -0.19565 -2.73511
1959 1 6.1108 -1.00641 -1.63903
280 1 -6.22918 -6.6037 -1.12789
1526 1 -5.82489 -6.32766 -0.516658
2366 1 -6.73316 -6.75043 -0.53091
702 1 -5.29712 -7.09745 -0.717003
638 1 -4.64422 -6.97941 -0.206242
2261 1 -5.07972 -6.0505 -0.565819
3369 2 -4.1432 -6.21811 -0.975331
2931 2 -3.68988 -5.83978 -0.436178
406 1 -3.66171 -7.0102 -0.0900281
1802 1 -3.00121 -6.58345 -0.994399
1640 1 -2.2329 -6.13039 -0.555713
271 1 -2.82833 -6.67211 -0.253529
2141 1 -1.60684 -5.78038 -0.832868
3278 2 -1.48333 -6.99942 -0.832379
3186 2 -0.982138 -6.5424 -0.343086
1364 1 -0.0930257 -6.21423 -0.95486
300 1 -0.0298575 -7.03272 -0.223661
1495 1 -0.376138 -7.05107 -1.17782
1379 1 0.421697 -6.83335 -1.18532
1133 1 0.397076 -6.26382 -0.314768
1668 1 1.1784 -6.33459 -0.613248
1924 1 2.56259 -6.45536 -0.123503
2432 1 2.14966 -6.04493 -0.643079
2423 1 2.06615 -6.81209 -0.718862
2842 2 3.2648 -6.02501 -0.989594
2633 1 3.59366 -6.92444 -0.471349
2883 2 3.69372 -5.74159 -0.324392
2699 1 4.49381 -6.33638 -0.774991
1312 1 4.21391 -5.80391 -1.42205
1918 1 4.15259 -7.04947 -1.07492
3005 2 5.62076 -6.81776 -0.812459
1891 1 5.07835 -5.76963 -0.641038
922 1 5.88331 -5.89062 -1.34833
1123 1 6.64002 -6.41431 -1.08273
36 1 6.94152 -6.04684 -0.45247
372 1 -6.75225 -4.30097 -1.04341
3107 2 -5.92587 -5.0935 -0.369965
3127 2 -6.28318 -5.36628 -0.886972
3210 2 -6.75823 -5.66278 -1.41665
2040 1 -5.86725 -4.37076 -1.12864
2207 1 -6.94998 -5.2438 -0.0222437
689 1 -4.77476 -5.24212 -0.522066
298 1 -4.90504 -4.5862 -1.18655
1010 1 -4.92735 -5.33494 -1.41055
1975 1 -4.09427 -4.86989 -0.857581
2294 1 -4.07257 -4.91921 -0.00198943
1753 1 -3.30249 -4.61454 -0.58407
256 1 -3.2522 -5.13203 -1.31829
2049 1 -2.66023 -4.5446 -1.21392
2005 1 -2.48957 -4.49834 -0.416568
991 1 -2.64861 -5.41698 -0.838737
1317 1 -1.99663 -4.96495 -0.727677
2316 1 -1.73515 -5.32259 -0.0636873
214 1 -0.818811 -5.36338 -0.49161
1074 1 -0.582532 -5.41909 -1.38638
1048 1 -0.0672182 -5.25072 -0.59198
1148 1 0.578405 -5.45575 -0.0720853
228 1 0.318392 -4.43837 -0.820473
3008 2 0.663438 -5.57371 -1.36916
2755 2 1.26862 -5.32279 -1.03976
2846 2 1.67688 -4.83107 -0.584028
1179 1 2.6207 -5.29661 -0.491795
1325 1 2.5654 -5.45197 -1.35542
1421 1 3.03188 -4.64369 -0.629837
2112 1 3.62931 -4.48761 -0.183571
2227 1 4.13948 -4.58693 -0.69844
518 1 4.89248 -4.56588 -0.487869
2210 1 4.62163 -5.26077 -0.978433
489 1 5.56977 -5.15439 -0.0620603
553 1 6.76241 -4.93903 -0.96857
2269 1 6.38006 -5.45272 -0.590568
3170 2 5.91431 -4.33719 -1.00953
902 1 -6.02573 -3.79128 -0.352987
19 1 -6.9423 -4.20767 -0.266844
1292 1 -5.22765 -3.78868 -0.719464
2583 1 -4.90398 -2.94308 -1.40516
1173 1 -4.54881 -3.11876 -0.250485
481 1 -4.5011 -4.22928 -0.372032
3434 2 -4.07734 -3.81033 -1.39063
3585 2 -3.56633 -3.48876 -0.784712
1648 1 -2.1128 -3.68392 -0.920862
3262 2 -2.97528 -3.3047 -0.390827
3258 2 -0.676437 -4.03253 -0.290091
3326 2 -1.06691 -4.22277 -0.81582
314 1 -1.49834 -3.37329 -1.40598
807 1 -0.972726 -3.19452 -0.845227
340 1 -1.54124 -3.52574 -0.154005
899 1 -0.19946 -2.95502 -1.38965
2084 1 0.154635 -3.74529 -1.17822
1898 1 0.390627 -3.23816 -0.717372
2730 1 1.59877 -3.72099 -0.569026
2628 1 1.09341 -4.15801 -1.17219
1584 1 0.904051 -3.68575 -0.0847013
635 1 1.93313 -3.20572 -0.0632059
529 1 2.95548 -4.04196 -0.209872
952 1 2.285 -4.03501 -0.891601
2297 1 2.66326 -3.34175 -0.281112
896 1 2.31047 -3.08011 -1.1146
2824 2 3.58161 -3.76719 -1.11316
2851 2 3.74432 -3.21706 -0.568179
466 1 4.68516 -4.09706 -1.40611
2693 1 5.01609 -3.59878 -0.585396
884 1 5.79032 -3.15588 -1.15402
2803 2 6.0495 -4.04687 -0.285018
891 1 6.77316 -3.83176 -1.25696
570 1 6.51763 -2.88978 -1.1578
21 1 7.01261 -3.33911 -0.554846
1458 1 -6.41493 -1.71486 -0.208748
3520 2 -6.20641 -2.73657 -1.24065
868 1 -6.46612 -1.70216 -1.14625
1745 1 -6.98756 -2.33865 -0.522913
987 1 -5.7145 -1.72168 -1.36588
2769 2 -5.6661 -2.49655 -0.546142
2158 1 -5.05888 -2.18848 -1.41423
823 1 -4.20594 -2.53038 -1.04606
1475 1 -3.78034 -2.23914 -0.408598
105 1 -4.46408 -1.79656 -0.874046
138 1 -2.46342 -1.88643 -0.712544
567 1 -3.20896 -2.39821 -1.00217
2045 1 -3.04133 -1.79717 -0.0330998
1382 1 -1.1545 -2.72944 -0.0840302
1295 1 -1.85573 -2.84185 -0.768651
2968 2 -0.834236 -2.00196 -1.19012
317 1 -1.64273 -2.01811 -0.385321
3498 2 -0.522676 -1.50775 -0.471887
2391 1 -0.3586 -2.68498 -0.445142
1404 1 0.293987 -2.3066 -0.592424
2405 1 0.594087 -1.59551 -1.10761
2000 1 0.920933 -1.59871 -0.21983
2953 2 1.25518 -2.81249 -0.99893
3500 2 1.74841 -2.33275 -0.478913
2225 1 1.65592 -1.60845 -1.25042
1205 1 0.690045 -2.57898 -0.0442867
23 1 2.99894 -2.67154 -0.742897
2407 1 2.65819 -2.20134 -1.1495
599 1 3.59471 -2.48758 -1.39984
2542 1 3.62703 -2.02553 -0.626634
2526 1 4.35496 -1.52167 -0.0950337
2474 1 4.40965 -2.06396 -0.905736
2747 2 4.15652 -2.77328 -0.0259785
2275 1 4.65148 -2.75702 -1.1273
1397 1 5.1442 -2.20581 -0.461254
3257 2 5.73176 -1.90763 -1.31402
1761 1 5.56093 -2.82753 -0.132092
974 1 7.05357 -2.11695 -1.25475
306 1 6.40302 -2.57279 -0.361626
3174 2 6.28133 -1.53378 -0.730083
3392 2 -5.86473 -0.378503 -1.39024
2013 1 -6.06284 -0.648597 -0.181711
1334 1 -6.71467 -0.876239 -0.771204
2301 1 -7.04199 -0.266428 -1.20662
1894 1 -4.68732 -1.01098 -1.20804
857 1 -4.94283 -0.894642 -0.399153
3433 2 -5.30239 -0.0723214 -0.97637
1660 1 -5.66839 -1.27816 -0.662955
1285 1 -3.80918 -1.29236 -0.555389
737 1 -4.09148 -0.56627 -0.517797
2453 1 -3.39443 -0.0785475 -1.10443
3303 2 -2.45335 -0.281416 -0.266417
3115 2 -2.73131 -0.900551 -0.78325
254 1 -1.69998 -1.2874 -0.603376
2044 1 -1.41189 -0.720435 -0.271627
911 1 -1.80633 -1.35171 -1.37268
977 1 -1.82338 -0.300983 -1.10629
490 1 -1.20615 -0.849045 -1.18258
485 1 -0.596252 -0.465639 -0.728907
593 1 0.216503 -0.962219 -1.14726
1985 1 0.382038 -0.153355 -0.745456
1351 1 1.93578 -1.17632 -0.596454
3448 2 1.7527 -0.287707 -1.1065
1631 1 0.983024 -0.71395 -0.480419
2440 1 3.11305 -1.29102 -0.480232
2043 1 3.11924 -0.420487 -0.0480503
714 1 2.69049 -0.62297 -0.990244
1537 1 2.55412 -1.31981 -1.08043
2859 2 4.30431 -0.503395 -0.35264
3437 2 4.05132 -0.938272 -1.0444
2815 2 4.89118 -0.147256 -0.0312007