ITEM: TIMESTEP
0
ITEM: NUMBER OF ATOMS
3594
ITEM: BOX BOUNDS pp pp pp
-7.3983023709077003e+00 7.3983023709077003e+00
-7.3983023709077003e+00 7.3983023709077003e+00
-7.3983023709077003e+00 7.3983023709077003e+00
ITEM: ATOMS id type x y z
854 1 -7.33946 -6.77572 -6.91325
2075 1 -6.61802 -6.93596 -5.98212
592 1 -6.47567 -6.43341 -6.94258
2726 1 -6.33265 -6.09446 -6.04789
2182 1 -6.52801 -7.38385 -7.33702
3485 2 -5.3362 -6.74003 -7.19766
3138 2 -4.73725 -6.40879 -6.30522
3380 2 -4.67232 -7.15695 -7.35787
683 1 -3.95233 -6.243 -7.04097
2695 1 -2.87318 -6.07683 -6.51546
69 1 -3.39817 -6.60509 -6.65287
481 1 -2.48944 -6.73632 -7.26191
3471 2 -6.40406 -4.84814 -6.63927
1930 1 -6.74236 -5.66837 -7.17719
1439 1 -7.15894 -5.22655 -5.97102
3216 2 -7.21533 -4.5933 -7.21607
2502 1 -4.35128 -5.09823 -6.47285
2932 2 -5.39822 -5.70115 -6.6837
3479 2 -5.69621 -4.96662 -6.53331
758 1 -4.6847 -4.51399 -5.94716
1988 1 -4.03745 -4.45763 -7.18532
237 1 -2.49751 -4.80352 -6.97238
2699 1 -3.54366 -5.8419 -6.16445
2569 1 -3.55249 -5.2772 -6.93182
2216 1 -3.39038 -4.87934 -6.15304
1507 1 -6.4424 -3.7982 -6.01924
1365 1 -7.10724 -4.30384 -5.97673
108 1 -5.88102 -4.11285 -7.11056
413 1 -7.13472 -3.37247 -6.10892
1097 1 -6.55491 -3.63168 -7.07441
3183 2 -5.63934 -4.25715 -5.99545
1215 1 -4.19024 -3.88556 -6.26177
2161 1 -4.98331 -4.21246 -7.08718
2366 1 -4.40008 -3.04088 -6.62417
2800 2 -5.32799 -3.35074 -6.15556
1625 1 -5.36376 -3.49041 -7.32709
2447 1 -4.19721 -3.13074 -5.95429
321 1 -4.36713 -3.52432 -7.19417
2841 2 -3.2209 -3.88458 -6.65619
3437 2 -6.0961 -1.80433 -6.84607
2875 2 -5.87958 -2.52254 -6.35793
3427 2 -7.09275 -1.91993 -6.14334
998 1 -6.11346 -2.9385 -7.29175
2548 1 -6.90651 -2.72375 -6.75956
692 1 -4.81131 -1.55196 -6.41629
10 1 -5.13848 -2.46536 -7.21849
659 1 -4.19044 -2.23086 -7.12281
2539 1 -3.99728 -1.86773 -6.38136
1388 1 -3.7113 -2.6009 -6.47453
1318 1 -2.81236 -2.41833 -6.33199
3267 2 -2.79073 -1.74263 -7.23861
2746 2 -2.52284 -2.59846 -7.39175
1672 1 -7.24662 -0.357973 -6.83197
2261 1 -6.41928 -1.11827 -6.05966
89 1 -6.39065 -0.393478 -6.69748
724 1 -7.00781 -1.38377 -6.85373
232 1 -4.24935 -0.86072 -6.0504
2628 1 -5.36923 -0.804594 -6.18585
1389 1 -4.81595 -0.259877 -6.18478
3362 2 -5.44596 -1.21753 -7.33777
3139 2 -4.7104 -1.00203 -7.23962
3272 2 -3.88754 -0.629388 -7.13757
1423 1 -3.38222 -1.47014 -6.06514
1290 1 -3.49251 -0.510377 -6.07653
1333 1 -2.81578 -0.326282 -6.57883
3075 2 -3.28987 -1.09354 -7.04177
1586 1 -5.95834 -7.03692 -5.37824
1358 1 -6.70229 -7.05739 -4.88175
2341 1 -6.20872 -6.3626 -4.70335
1351 1 -5.47858 -6.19151 -5.68469
1912 1 -4.9681 -7.1028 -4.93829
2499 1 -5.08034 -7.30657 -5.88617
2292 1 -5.61455 -6.83137 -4.66478
1316 1 -4.82094 -6.05748 -4.84076
2958 2 -4.43446 -6.47005 -5.67044
2848 2 -3.73491 -6.82102 -5.58982
332 1 -2.65503 -7.34723 -4.97327
2994 2 -2.86817 -6.93161 -5.73694
2099 1 -6.36264 -4.93144 -5.47205
2878 2 -7.03617 -5.64198 -4.99793
377 1 -6.12998 -5.60444 -5.36282
864 1 -5.3684 -5.62965 -4.44313
1329 1 -4.84977 -4.92362 -4.75993
1600 1 -5.51119 -5.28059 -5.5804
2500 1 -4.11262 -5.83645 -4.58896
437 1 -4.44309 -5.34587 -5.55398
1487 1 -3.34034 -5.85552 -5.20418
136 1 -2.50154 -4.89698 -5.90614
3238 2 -2.98791 -4.53506 -4.74218
316 1 -3.61198 -4.97787 -5.44948
1804 1 -2.59562 -5.72887 -5.5496
2604 1 -6.96924 -4.42215 -5.34404
2309 1 -6.73359 -4.39643 -4.71326
3419 2 -6.17661 -3.45285 -4.64092
787 1 -6.44068 -2.98014 -5.73578
2332 1 -7.07698 -3.5246 -5.2192
2420 1 -5.72691 -4.36218 -4.64091
2710 1 -4.1213 -4.24289 -5.33668
1305 1 -4.97331 -4.12243 -5.1624
2081 1 -5.18606 -3.3654 -5.03899
1170 1 -4.42606 -3.1605 -5.17986
288 1 -3.76281 -3.79098 -4.8686
2850 2 -2.79114 -3.74772 -4.80172
2967 2 -3.20476 -3.67663 -5.73693
3013 2 -2.71844 -3.10365 -5.33535
587 1 -7.13248 -1.9725 -4.48072
1564 1 -6.34442 -2.43452 -4.50998
1911 1 -6.50569 -2.07022 -5.36189
801 1 -7.03741 -2.82456 -4.81774
306 1 -6.50924 -1.71274 -4.68945
1017 1 -4.83954 -2.42648 -5.91033
2567 1 -5.49601 -1.56651 -5.62589
2116 1 -5.63562 -1.89976 -4.8612
1663 1 -4.70653 -2.12472 -4.76462
2324 1 -5.49558 -2.55696 -5.23355
1556 1 -3.8752 -2.52129 -4.63908
1364 1 -2.81912 -2.019 -4.7756
231 1 -3.51845 -1.60767 -4.97521
1890 1 -3.57519 -2.4623 -5.60877
2415 1 -2.99148 -1.55129 -5.46615
2651 1 -6.19036 -1.1488 -5.27373
3451 2 -6.11696 -0.115145 -5.40403
362 1 -7.01431 -0.814699 -4.5993
3015 2 -7.21563 -0.342501 -5.66397
3457 2 -4.75908 -0.65209 -4.94597
1338 1 -4.13635 -0.0345026 -5.29509
3500 2 -5.45851 -0.48327 -5.20273
3157 2 -4.55888 -1.3228 -5.25977
151 1 -3.36062 -0.660658 -5.26005
1720 1 -6.98951 -6.41163 -3.81801
3545 2 -6.10733 -7.09294 -3.62512
2783 2 -5.84515 -6.22532 -3.58443
3513 2 -5.06419 -6.59447 -3.76251
3541 2 -4.24339 -6.81575 -3.38954
1769 1 -3.78859 -6.73231 -4.36931
406 1 -2.87965 -6.80058 -4.34208
434 1 -3.35373 -6.12504 -4.33664
2344 1 -2.49327 -6.26895 -3.66143
2302 1 -6.12461 -5.09282 -3.97034
1168 1 -7.04482 -5.54589 -3.75172
939 1 -7.20516 -4.80426 -3.03169
56 1 -4.50881 -5.52919 -3.97318
2338 1 -5.27774 -5.27152 -3.31181
1278 1 -3.85655 -4.60064 -3.05323
3260 2 -3.59357 -4.92091 -4.37881
2786 2 -2.89621 -5.30445 -4.4208
1613 1 -3.52283 -5.86308 -3.61993
509 1 -3.03197 -4.89536 -3.35631
1253 1 -6.99228 -3.93608 -3.70289
1977 1 -6.17222 -4.34605 -3.63432
3367 2 -6.34514 -3.05872 -3.95872
3358 2 -4.55487 -4.23818 -3.99747
3405 2 -5.21052 -4.20968 -3.20508
3012 2 -5.55395 -3.52669 -4.0956
3445 2 -4.58757 -3.43365 -3.72317
3097 2 -5.55106 -3.51563 -3.38857
1443 1 -2.96345 -3.73028 -3.71609
2466 1 -3.54779 -3.749 -3.36056
2085 1 -3.53542 -3.18856 -4.05248
1953 1 -2.73699 -3.08965 -3.35068
2772 2 -6.67199 -2.44846 -3.50579
311 1 -4.44067 -2.41141 -3.74668
2237 1 -4.14766 -1.84452 -4.30475
2336 1 -5.14393 -2.63828 -4.24513
2359 1 -5.5209 -1.56402 -3.26825
505 1 -5.70193 -2.27022 -3.66318
534 1 -4.6421 -1.65371 -3.2406
1030 1 -2.93522 -2.66632 -3.98588
2826 2 -3.43867 -1.94622 -3.43128
1834 1 -7.1932 -0.340417 -3.84367
2481 1 -7.19766 -0.41374 -3.04544
3558 2 -6.53648 -1.44268 -3.65014
1207 1 -6.42754 -0.303558 -3.38498
2159 1 -5.70976 -0.140934 -4.23411
3468 2 -5.62442 -1.0297 -4.22461
314 1 -4.59873 -0.166614 -4.12929
2094 1 -5.42805 -0.69456 -3.0821
83 1 -4.77941 -0.268507 -3.28728
42 1 -4.4775 -0.948236 -3.67489
2453 1 -3.96547 -0.911256 -4.25902
2678 1 -3.6565 -0.143384 -4.27449
1576 1 -3.07476 -1.43458 -4.25196
1607 1 -2.95863 -0.627035 -3.80259
3256 2 -3.52107 -1.15036 -3.06261
2168 1 -6.50031 -6.57973 -1.62927
927 1 -6.80918 -6.63628 -2.63686
710 1 -6.14162 -6.12379 -2.38925
779 1 -4.78609 -6.43574 -2.63388
114 1 -4.39765 -6.60885 -1.91098
1992 1 -5.34113 -5.92 -2.53242
1806 1 -5.737 -6.95171 -2.11541
1980 1 -3.90238 -7.2526 -2.57607
1167 1 -3.60291 -6.52424 -2.05105
1905 1 -3.35505 -6.44199 -2.94125
1176 1 -6.37126 -5.26385 -2.85435
3553 2 -6.98392 -5.26573 -1.8136
3287 2 -7.39333 -5.86361 -2.28536
123 1 -5.59703 -5.11995 -2.33749
723 1 -4.63773 -4.62254 -2.25212
1192 1 -4.46661 -5.5664 -1.96464
2371 1 -3.91695 -5.25295 -2.73389
878 1 -3.34961 -5.78699 -2.1993
2862 2 -3.55409 -4.83309 -1.56981
92 1 -2.59492 -5.68169 -2.8659
270 1 -3.0992 -4.73062 -2.42626
1724 1 -6.27869 -4.29868 -2.69485
789 1 -5.80491 -4.21787 -2.04075
2224 1 -7.21137 -3.70073 -2.91659
3571 2 -7.35152 -4.3531 -1.87691
1566 1 -6.57185 -3.19015 -1.53987
1682 1 -6.34324 -3.25037 -2.48755
1936 1 -4.41983 -3.45394 -2.35806
1872 1 -5.14779 -3.40952 -1.92382
3337 2 -3.77485 -3.77436 -1.87872
3304 2 -2.79185 -3.59542 -2.29061
3164 2 -3.31267 -3.08331 -2.40837
773 1 -6.4935 -1.54463 -2.1171
2575 1 -6.5626 -2.5632 -1.96211
3560 2 -7.14355 -2.03022 -2.9312
53 1 -6.10734 -2.35323 -2.61355
2035 1 -7.06566 -1.89207 -1.51286
1187 1 -4.63407 -2.70851 -2.86965
649 1 -5.47123 -2.95801 -2.33909
3329 2 -5.26716 -1.66377 -2.06994
1173 1 -4.60818 -2.69029 -1.75663
2496 1 -5.33877 -2.47425 -2.90478
1759 1 -3.86866 -2.64079 -1.52569
2693 1 -3.9348 -1.91228 -2.13439
3491 2 -3.60494 -2.37259 -2.82012
986 1 -3.1636 -1.59742 -2.02112
2255 1 -2.56566 -2.21063 -2.46179
910 1 -6.61031 -0.790216 -2.66784
2213 1 -6.05274 -1.39498 -2.67245
842 1 -6.20307 -0.935298 -1.4826
2712 1 -5.85135 -0.619072 -2.32251
2488 1 -6.93624 -0.639874 -1.67262
598 1 -4.65413 -0.915116 -2.69685
2637 1 -4.18811 -1.3173 -1.58912
2653 1 -4.80302 -0.253214 -1.97734
1712 1 -4.10666 -0.88078 -2.08828
2975 2 -3.7283 -0.477138 -2.95009
918 1 -3.00529 -0.907959 -1.78641
3312 2 -2.47953 -1.17213 -2.88188
1511 1 -2.60826 -0.133127 -2.63885
1636 1 -6.67289 -7.30499 -0.35749
2540 1 -6.61326 -6.33531 -0.899614
1254 1 -6.11342 -7.04084 -1.21869
2163 1 -7.39482 -6.86816 -1.2604
1767 1 -5.21888 -6.95016 -1.22894
180 1 -5.71128 -7.25584 -0.407034
1211 1 -4.50548 -6.16588 -0.229331
2385 1 -4.90028 -7.09698 -0.295168
318 1 -4.19221 -6.90269 -0.106961
1844 1 -2.52344 -6.06161 -0.0198273
305 1 -3.61911 -5.95339 -0.312005
3248 2 -2.82589 -6.42386 -1.3373
3351 2 -3.60608 -7.06115 -0.861624
260 1 -2.80719 -7.00484 -0.221443
650 1 -6.46835 -4.58634 -0.42965
3415 2 -5.8259 -5.33968 -1.0937
981 1 -7.22185 -4.56596 -0.832504
1648 1 -7.27775 -5.43421 -0.634986
1444 1 -6.71536 -5.42135 -0.205352
3279 2 -6.3813 -5.03696 -1.45744
407 1 -4.27408 -5.67984 -1.06522
2513 1 -4.89192 -4.53355 -0.00902807
3098 2 -5.52187 -5.91478 -0.283987
1610 1 -4.59576 -5.24987 -0.484829
839 1 -5.15023 -4.45378 -1.38893
50 1 -4.12886 -4.7821 -0.0908607
2957 2 -5.3159 -5.86564 -1.14566
1393 1 -5.60625 -4.59692 -0.0897911
3009 2 -3.14442 -5.22312 -1.04143
764 1 -7.03244 -3.70835 -0.56467
356 1 -6.39615 -4.0581 -1.10783
2581 1 -6.81334 -3.05973 -0.881626
2259 1 -4.48135 -3.73801 -0.209549
1406 1 -4.46941 -4.2852 -1.23602
3540 2 -5.54738 -3.70576 -0.62234
2743 2 -5.60254 -3.11041 -1.00459
571 1 -4.39831 -3.10185 -1.00513
3005 2 -5.47981 -3.00139 -0.259165
1794 1 -2.81455 -4.36823 -0.598854
1793 1 -3.60012 -4.26346 -0.423186
1063 1 -2.68952 -4.1396 -1.41506
1226 1 -3.54623 -3.58745 -0.895038
2639 1 -2.63129 -3.25614 -0.96751
473 1 -6.19482 -2.24736 -0.561864
196 1 -6.45731 -2.94149 -0.200766
2383 1 -6.40772 -1.75874 -1.096
2987 2 -6.96955 -1.51999 -0.223092
167 1 -4.89249 -1.9698 -0.444724
2201 1 -4.26767 -1.81327 -0.973799
2922 2 -5.50556 -2.19656 -1.42595
684 1 -4.30793 -2.50187 -0.307084
887 1 -4.13541 -1.66449 -0.0676593
3202 2 -2.90319 -1.7562 -0.863458
2812 2 -3.45653 -2.4895 -0.616507
2691 1 -2.48766 -2.77932 -1.45534
2968 2 -7.05376 -0.764654 -0.0788736
2745 2 -6.73751 -0.269386 -0.640406
2596 1 -5.76431 -0.204409 -0.457108
91 1 -5.71611 -0.288019 -1.4602
3181 2 -5.00056 -0.750438 -0.647538
2860 2 -5.19321 -1.30941 -1.32116
90 1 -5.73537 -1.45324 -0.24642
2039 1 -4.35373 -0.0424866 -0.895438
3016 2 -4.4077 -0.487369 -0.000130349
975 1 -3.7611 -0.507929 -1.33185
2294 1 -3.13934 -0.691526 -0.17354
1353 1 -3.62211 -1.13622 -0.79293
2702 1 -2.51403 -0.26137 -1.17339
3220 2 -6.55152 -6.31605 0.192789
3083 2 -6.14924 -6.65311 1.14369
3170 2 -6.94144 -6.5382 0.673614
2274 1 -4.91375 -7.17908 1.06519
1451 1 -4.59123 -6.336 0.538271
397 1 -5.03428 -6.08925 1.47504
3063 2 -5.65329 -6.36646 0.337332
533 1 -3.72108 -6.09209 0.654808
1803 1 -3.97422 -7.20337 0.82412
3573 2 -2.85832 -6.65813 0.967411
1937 1 -3.42916 -6.97259 0.173111
727 1 -5.919 -5.66867 1.03744
2791 2 -7.07061 -4.58442 0.512877
841 1 -6.58847 -5.25606 1.03929
2008 1 -6.11352 -5.26091 0.337645
3051 2 -7.25604 -5.84087 0.62354
1156 1 -4.57303 -5.41426 1.08372
605 1 -5.29865 -5.18127 0.31124
2838 2 -5.02183 -4.55719 0.982943
1582 1 -4.30204 -5.42181 0.250483
2886 2 -3.96258 -4.60579 0.979895
1845 1 -2.91786 -5.02044 0.00233824
1271 1 -3.28182 -5.37472 1.22232
1264 1 -6.04266 -4.33208 0.774363
1870 1 -6.99873 -3.76192 1.36786
1116 1 -6.5338 -3.73199 0.126237
1083 1 -6.13062 -3.34393 0.694722
1998 1 -7.18283 -3.19684 0.640702
2452 1 -5.37369 -3.83993 0.425546
959 1 -5.16036 -3.20175 0.818545
1622 1 -4.54809 -3.5069 0.984788
2544 1 -3.80046 -3.00729 1.3015
2834 2 -3.40069 -4.03852 0.675843
3398 2 -3.28302 -3.19849 0.338895
2358 1 -6.45127 -1.52956 0.886564
528 1 -7.18193 -2.44217 1.05866
647 1 -6.67623 -2.33496 0.517862
2979 2 -5.45517 -2.22699 0.44391
1656 1 -4.66541 -1.81446 0.759581
1267 1 -4.39508 -2.76507 0.502807
1053 1 -4.60046 -2.29476 1.37177
2644 1 -2.81704 -1.50714 1.32698
1048 1 -3.69707 -1.68573 0.987493
2708 1 -2.60787 -2.14665 0.715945
1534 1 -3.07553 -1.56672 0.443373
2059 1 -6.83263 -0.6343 1.0953
39 1 -5.9361 -0.992992 0.483457
2609 1 -5.15762 -0.29627 0.758189
1615 1 -5.07599 -1.19264 0.388197
786 1 -4.32935 -1.11289 0.985254
1056 1 -4.3617 -0.319875 1.39002
348 1 -3.92468 -0.219598 0.817634
1180 1 -3.1644 -0.335623 1.31876
609 1 -2.89841 -0.757959 0.613807
1094 1 -3.68801 -0.995104 0.713993
1478 1 -6.41873 -6.06555 2.36353
200 1 -6.3467 -6.77445 2.49745
2413 1 -5.84047 -7.34892 2.57254
1229 1 -7.28452 -6.31099 1.67933
3525 2 -7.28389 -7.3202 2.60842
1857 1 -5.31598 -6.49994 2.60236
856 1 -5.72482 -6.13264 1.89616
3038 2 -4.2215 -6.95311 1.85727
177 1 -5.55983 -7.16563 1.69488
476 1 -4.75065 -5.92446 2.22814
82 1 -3.73277 -6.0107 1.92971
3252 2 -3.92399 -6.81161 2.61011
170 1 -2.59348 -7.10418 2.67839
2455 1 -2.47845 -6.18197 2.16645
930 1 -3.06541 -6.64874 1.83884
2657 1 -6.74657 -5.52541 1.91808
2209 1 -6.72946 -4.71483 2.70562
1366 1 -4.20195 -4.59239 1.84101
2526 1 -4.16575 -5.48635 2.86981
3185 2 -5.58461 -4.80811 2.40084
96 1 -4.30989 -5.3363 2.02221
3096 2 -5.47436 -5.0509 1.70951
1077 1 -2.50789 -5.51878 2.70706
143 1 -2.51154 -5.32862 1.89586
2024 1 -3.43631 -5.62768 2.55621
891 1 -3.28423 -4.78847 2.07742
734 1 -6.27798 -4.35382 1.59393
2308 1 -6.39934 -3.86969 2.88567
2668 1 -6.92054 -4.10774 2.0759
1320 1 -6.82629 -3.35543 2.07468
560 1 -5.80433 -3.19428 2.36172
1926 1 -4.61988 -4.39608 2.47352
2208 1 -5.74288 -3.71085 1.67293
331 1 -5.0204 -3.79417 2.20624
1861 1 -4.77371 -3.05199 1.72933
295 1 -4.15178 -3.53875 2.03277
1453 1 -2.59254 -4.30323 2.4342
277 1 -2.52217 -3.99301 1.52508
3195 2 -3.58052 -4.02471 2.88635
1145 1 -2.51755 -3.31932 2.41363
1631 1 -3.33948 -3.53229 1.74007
1542 1 -5.86562 -2.15278 2.5819
3273 2 -5.92366 -2.74532 1.59065
2656 1 -6.60458 -2.38182 2.15693
1139 1 -6.41088 -1.52407 2.37194
1146 1 -6.72568 -1.55234 1.56187
766 1 -5.1849 -2.58637 2.6986
2892 2 -5.59293 -1.94625 1.54782
300 1 -2.74046 -1.62431 2.22018
3215 2 -3.66481 -2.2258 2.27297
202 1 -3.00337 -2.21616 1.55578
1491 1 -2.59981 -2.49694 2.51299
3213 2 -3.6831 -2.88324 2.66302
920 1 -6.22214 -0.565624 1.66712
1128 1 -6.76386 -0.692369 2.69183
105 1 -7.19703 -0.822074 1.93169
22 1 -5.9791 -0.272214 2.75113
1123 1 -5.66569 -1.17815 2.63209
3528 2 -5.17931 -1.09565 1.52972
2752 2 -4.67163 -1.3797 2.21907
3421 2 -5.05357 -0.277233 2.30644
536 1 -3.71384 -0.292026 1.90894
3300 2 -3.76028 -1.2341 1.88001
2189 1 -4.04805 -0.587615 2.86274
359 1 -3.26745 -1.30839 2.69162
3189 2 -2.46928 -0.236753 2.11965
1749 1 -6.19915 -7.26548 3.46037
2696 1 -6.53184 -6.10778 3.38431
3270 2 -5.88156 -6.86195 4.42146
256 1 -7.26608 -6.51308 4.31472
2258 1 -6.98506 -7.3565 3.81887
3128 2 -4.47257 -6.47085 3.27422
2989 2 -5.69664 -6.46195 3.70489
3180 2 -4.98489 -6.37158 3.99218
3435 2 -3.99609 -6.66912 3.86235
1400 1 -3.05351 -6.1276 3.0483
1961 1 -2.90813 -6.83819 3.47031
169 1 -2.83379 -5.91927 4.02135
1454 1 -6.14947 -5.4474 3.10941
2517 1 -7.08893 -4.92158 3.58798
2471 1 -6.24543 -5.48052 3.93316
1525 1 -7.34052 -5.59443 3.83853
3523 2 -5.53313 -4.44191 3.11136
1119 1 -5.28857 -5.73248 3.05759
1847 1 -4.86893 -5.20313 3.13213
2103 1 -4.1274 -5.03035 3.67594
2177 1 -4.64884 -5.36892 4.03005
2153 1 -5.42304 -5.14526 3.71873
364 1 -3.70314 -5.59796 3.52588
2864 2 -2.93344 -4.68767 3.38511
3265 2 -3.16662 -4.77172 4.38142
3360 2 -6.45933 -4.31524 4.02668
1614 1 -6.97477 -3.02183 3.03843
1531 1 -6.19329 -3.0177 3.71892
2492 1 -6.94952 -3.39109 3.74988
606 1 -4.491 -4.39195 3.46952
3017 2 -5.73416 -3.72177 4.12521
2927 2 -5.41413 -3.67045 3.23605
45 1 -4.46269 -3.68354 3.41204
224 1 -4.57232 -3.24062 4.39992
1632 1 -3.85589 -3.80577 4.20993
698 1 -2.84612 -3.73754 4.00639
1113 1 -2.75851 -3.27665 3.40006
588 1 -3.67532 -3.08033 3.71248
3175 2 -6.46201 -1.75505 3.4321
2711 1 -6.24641 -2.76922 3.03903
3055 2 -7.28178 -1.63575 3.12836
3400 2 -7.03414 -2.1158 3.65735
2328 1 -6.31006 -1.53948 4.36383
1474 1 -5.44597 -2.52678 3.53346
1455 1 -4.12328 -1.62924 3.10567
1758 1 -5.164 -1.67674 2.96906
1022 1 -4.54192 -2.80571 3.33773
2809 2 -4.3967 -2.19101 4.33406
1838 1 -5.49184 -2.55508 4.42543
806 1 -2.94168 -2.32421 3.17539
1914 1 -3.50336 -2.12619 3.54312
632 1 -2.85745 -2.72162 3.92643
1641 1 -2.90612 -1.82597 4.21951
893 1 -5.76409 -0.669294 3.46186
456 1 -7.30318 -0.696378 3.5826
607 1 -6.43066 -0.335928 4.13686
2389 1 -4.82961 -0.777958 3.07067
697 1 -4.24909 -0.210056 3.60038
2117 1 -5.0936 -0.286862 4.23054
3106 2 -4.61545 -1.47787 4.02781
3109 2 -3.8779 -0.874984 4.20034
929 1 -3.14958 -0.356899 3.01158
1873 1 -3.38296 -1.22675 3.59101
599 1 -2.65165 -0.835269 4.22863
3233 2 -6.38548 -6.98339 4.97785
3262 2 -6.29567 -6.32555 5.67917
709 1 -4.94286 -6.97697 5.2963
80 1 -5.40932 -6.09308 5.37651
344 1 -4.5742 -5.99169 5.69848
1186 1 -4.45336 -6.48875 4.85364
1051 1 -4.03143 -7.07802 5.40546
179 1 -3.2466 -6.9661 4.84158
3538 2 -3.41372 -6.41658 5.85482
2048 1 -6.76272 -5.78699 4.59867
2633 1 -6.49204 -4.92223 5.61745
194 1 -7.17527 -5.66815 5.46279
1927 1 -5.95754 -4.77354 5.05988
1221 1 -4.78368 -5.61582 4.96129
1015 1 -5.58768 -5.65769 4.72829
2805 2 -4.45846 -4.69862 5.80635
850 1 -5.12075 -4.92547 4.59596
645 1 -3.86176 -5.69033 5.20751
2901 2 -3.88411 -4.70261 5.22448
674 1 -3.68665 -5.85734 4.48886
1618 1 -3.10509 -5.40557 5.74177
2046 1 -2.91174 -4.51391 5.81499
859 1 -2.74481 -5.83974 5.05088
1703 1 -6.57471 -3.79542 5.76389
2815 2 -6.94952 -4.23144 4.8283
782 1 -6.34633 -3.23334 5.11593
341 1 -5.64763 -4.13707 5.19358
67 1 -4.67349 -4.21989 4.46703
2311 1 -5.37685 -2.99689 5.11278
131 1 -4.80925 -3.60817 5.17339
853 1 -3.72871 -3.5475 5.18436
1150 1 -2.95429 -3.74392 4.80364
1782 1 -3.18943 -3.75187 5.75275
2327 1 -6.87046 -1.75182 5.06983
1907 1 -6.11209 -2.56585 5.49345
851 1 -6.66369 -2.64776 4.51012
714 1 -4.92709 -1.68453 5.13074
3390 2 -4.13172 -2.71019 5.40273
409 1 -5.73182 -1.94528 4.79005
1506 1 -4.16821 -1.64827 5.52219
500 1 -3.33211 -2.70209 4.64431
1922 1 -2.61729 -1.48937 5.25727
1101 1 -3.33795 -2.12029 5.24548
264 1 -5.77577 -1.03938 4.46596
1500 1 -6.86836 -0.954604 4.57542
2915 2 -6.39553 -0.698181 5.41144
243 1 -7.30824 -0.180423 4.53836
3115 2 -5.63043 -0.903036 5.29881
1732 1 -4.39407 -0.810943 5.16266
197 1 -3.94965 -0.197205 5.86448
2073 1 -3.08644 -0.329603 5.0145
1776 1 -6.09355 -7.39056 6.07738
21 1 -6.44798 -6.83302 6.83682
1899 1 -6.94052 -7.07958 6.12716
2889 2 -6.42481 -5.98964 6.42718
219 1 -4.2844 -6.79222 6.46796
653 1 -5.54865 -6.63271 6.33088
2435 1 -4.44848 -6.1102 6.81294
2086 1 -5.09123 -7.25128 6.19878
852 1 -2.54149 -7.25427 6.93051
2991 2 -3.17888 -6.35812 6.42165
3072 2 -3.68692 -7.39212 7.05571
1609 1 -5.95263 -5.42796 7.2045
3514 2 -5.76404 -5.21529 6.16762
127 1 -6.83323 -5.06698 6.8138
846 1 -7.34666 -4.86141 6.11817
2949 2 -5.08542 -4.91451 6.00527
2000 1 -5.54478 -4.57766 6.95339
1908 1 -5.26918 -5.90445 6.84682
2655 1 -4.8093 -5.21649 7.31467
2519 1 -3.81655 -5.57173 6.24768
148 1 -4.0213 -5.1184 7.18071
1715 1 -3.45534 -4.73746 6.45059
1362 1 -2.99075 -5.62408 7.19733
2491 1 -6.72583 -4.43166 6.13631
1078 1 -7.3866 -4.08045 6.60149
2067 1 -5.8777 -3.85669 6.40055
485 1 -6.23658 -4.4351 6.80066
1141 1 -6.51539 -3.25859 6.75522
693 1 -4.24214 -4.39843 6.82442
611 1 -4.71979 -3.72848 5.92575
2290 1 -5.06346 -3.94529 6.61325
43 1 -5.40789 -3.31567 5.9468
1384 1 -5.03693 -3.03285 6.83215
109 1 -3.97395 -3.81928 6.22375
3062 2 -3.16425 -4.05511 7.1351
3155 2 -3.04264 -3.23249 7.14144
2041 1 -2.52634 -3.68951 6.31616
389 1 -6.80478 -2.05162 6.50027
2831 2 -7.04593 -2.89273 5.98613
58 1 -6.15705 -1.73364 5.93987
2178 1 -5.91307 -2.81215 6.36666
1432 1 -7.09815 -2.22203 7.32274
1162 1 -4.5925 -1.52889 6.44404
2414 1 -5.73786 -1.88331 6.70089
3118 2 -4.81695 -2.39792 5.95087
3383 2 -4.16544 -2.86129 6.22418
2490 1 -4.89694 -2.05844 7.01604
1591 1 -3.76135 -2.65586 7.19704
1230 1 -2.95997 -2.88638 5.9826
600 1 -3.04905 -2.03888 6.4084
209 1 -3.58033 -1.64757 6.09553
843 1 -2.51095 -1.54751 6.14916
2275 1 -3.57494 -1.88715 7.00884
1532 1 -6.83079 -0.966378 6.38968
2055 1 -6.49175 -1.26747 7.09473
2638 1 -7.01126 -0.193149 6.98125
1065 1 -5.89889 -0.386025 6.9535
1099 1 -7.37146 -1.47949 6.9146
2016 1 -4.44007 -0.311861 6.62659
2122 1 -4.79942 -0.719286 6.13795
66 1 -5.23361 -0.604005 6.63145
1527 1 -5.59373 -1.1907 6.31222
666 1 -3.85774 -0.925964 6.64362
1169 1 -3.00788 -0.770829 6.9127
1704 1 -6.24087 1.45298 -6.54792
1038 1 -6.49028 0.685626 -6.60272
132 1 -7.17142 1.13485 -7.04916
1530 1 -4.49878 1.43496 -6.64615
637 1 -5.37564 0.845261 -6.07926
1412 1 -4.1636 0.193046 -6.52938
1328 1 -5.64367 0.0197606 -6.28384
1752 1 -5.13051 0.0257096 -6.97008
227 1 -4.03059 1.24476 -6.10652
3086 2 -2.72128 1.13922 -6.33341
3469 2 -2.72844 0.416969 -5.98531
2047 1 -3.22961 0.233869 -7.30792
1206 1 -3.56589 0.499404 -6.61531
1563 1 -3.51949 1.10633 -7.36328
3395 2 -6.72489 2.43331 -6.9973
3251 2 -6.58682 2.34766 -6.25775
1190 1 -5.99659 1.5482 -7.23682
383 1 -5.25856 1.66021 -6.68915
1593 1 -4.22947 2.17911 -7.02303
1377 1 -5.33136 2.4092 -6.47742
1061 1 -3.86402 2.91815 -6.89059
2937 2 -2.51108 1.85914 -6.85575
921 1 -3.47733 1.98538 -6.7368
3158 2 -2.64592 2.86135 -6.82421
559 1 -3.63667 2.71378 -6.0657
2777 2 -7.05136 3.0798 -7.29278
2195 1 -5.81244 2.96419 -6.67835
1484 1 -6.68273 3.45494 -6.08425
2444 1 -6.26387 3.68795 -6.869
545 1 -6.65546 4.2573 -6.59144
138 1 -4.83348 3.24707 -6.78871
345 1 -4.45949 3.48681 -5.93114
3356 2 -5.21957 4.26149 -7.10425
2893 2 -5.59256 4.08963 -6.2365
2646 1 -3.76898 3.73078 -6.43867
2254 1 -4.02913 4.40788 -6.60742
468 1 -3.33995 3.6466 -7.14661
3379 2 -2.49043 3.78543 -6.59377
1244 1 -6.69863 5.2562 -6.93331
2372 1 -6.23254 5.02415 -6.40586
439 1 -7.28489 5.53712 -6.29503
459 1 -4.50659 5.29598 -6.22488
858 1 -4.89162 5.88002 -6.64761
991 1 -5.52822 5.17685 -6.70648
2460 1 -3.61611 5.29049 -6.79243
1979 1 -2.54351 5.23771 -6.0833
1684 1 -2.50486 5.10128 -7.06552
2547 1 -3.29369 4.51288 -7.12815
2298 1 -2.7224 5.89297 -6.26583
2748 2 -7.29419 6.91158 -6.37803
1399 1 -7.20349 6.31512 -7.28254
2276 1 -6.37454 6.26647 -7.38531
3386 2 -5.82841 7.1952 -6.82957
3114 2 -6.51555 6.14266 -6.17334
1501 1 -4.81029 6.53463 -7.21042
2156 1 -4.39626 7.10235 -6.2989
2845 2 -5.63403 6.56186 -6.51103
8 1 -4.08223 6.17658 -6.42217
2658 1 -3.33434 6.27461 -6.86896
973 1 -2.89247 7.30719 -7.1608
2728 1 -3.46563 7.10705 -6.64578
1766 1 -2.50814 5.99959 -7.35988
2680 1 -5.94576 1.06426 -5.49723
556 1 -6.72607 1.18253 -5.63696
2813 2 -7.26054 0.29957 -5.08149
1016 1 -7.19259 1.40425 -5.16192
860 1 -6.48126 1.19485 -4.58067
2631 1 -4.52324 0.361778 -5.80675
3237 2 -5.31938 0.140225 -5.30562
2007 1 -4.5909 0.349508 -4.77844
1395 1 -5.7337 0.861585 -4.55425
2587 1 -3.74492 0.56738 -5.55422
259 1 -3.16084 1.31238 -5.29224
183 1 -3.08348 0.750075 -4.67045
2843 2 -2.48935 0.118858 -5.23455
3407 2 -6.96531 2.41447 -5.62759
2854 2 -4.59599 2.2597 -5.85016
3295 2 -4.84163 1.67072 -5.41217
3142 2 -4.15677 1.67194 -4.95188
2350 1 -5.74263 2.05102 -5.44676
325 1 -5.75251 2.73917 -5.02402
388 1 -4.97747 2.70929 -4.49726
2368 1 -5.10384 1.56676 -4.44287
1074 1 -3.99742 2.83509 -5.18889
2108 1 -3.49101 1.86628 -5.90991
799 1 -3.19119 2.30204 -4.836
1475 1 -2.70267 2.32002 -5.8796
3127 2 -6.83853 3.23527 -4.95111
3246 2 -6.33766 4.1358 -4.77189
790 1 -7.11519 4.14563 -5.61634
3135 2 -5.89281 4.35897 -5.39826
239 1 -4.80075 3.31024 -5.33732
644 1 -5.51854 3.27697 -5.72414
70 1 -4.88157 4.11732 -4.89611
3232 2 -3.06558 3.52974 -5.73668
3536 2 -3.32799 4.33596 -5.66664
3205 2 -3.55152 3.91043 -4.93868
2285 1 -6.84161 4.9427 -5.64741
1334 1 -6.75367 5.54183 -5.07093
1396 1 -5.98204 5.18955 -4.93788
625 1 -7.34624 4.44636 -4.92673
2697 1 -5.03507 5.10227 -5.21191
2218 1 -4.44115 4.54404 -5.81319
2173 1 -5.54731 5.25879 -5.78243
360 1 -4.30854 4.76158 -4.86648
3054 2 -3.82451 5.65096 -5.55221
2665 1 -2.54223 4.6707 -4.52137
2737 2 -3.52514 4.98951 -5.42874
1174 1 -2.61548 5.9078 -5.59416
1335 1 -2.99409 5.44399 -4.75728
1787 1 -2.51731 5.20688 -5.17221
1880 1 -5.91437 6.05643 -5.21996
624 1 -7.05368 6.91931 -5.10329
2027 1 -6.20661 6.97054 -5.42149
163 1 -4.15243 6.52671 -4.58463
2409 1 -4.48807 7.10556 -5.22486
1742 1 -5.38691 6.84121 -5.44785
3447 2 -4.6406 6.11513 -5.50468
665 1 -3.78161 6.91114 -5.85811
2493 1 -4.04859 7.27809 -4.58109
1433 1 -3.40438 7.2343 -5.06218
458 1 -2.60117 6.76069 -5.5776
1646 1 -3.13576 6.32943 -5.06316
1514 1 -6.44648 0.232255 -4.22189
2360 1 -7.27718 0.797928 -4.03929
3364 2 -5.78052 1.2793 -3.24183
699 1 -6.85498 0.587192 -3.1216
1403 1 -5.10944 0.608006 -4.13709
1898 1 -4.71226 1.38012 -3.76063
1001 1 -4.67719 0.677773 -3.11136
3389 2 -5.61116 0.45674 -3.15715
153 1 -4.05416 0.640733 -3.67978
2378 1 -2.66261 0.301692 -4.03925
667 1 -3.54159 1.05643 -3.05109
664 1 -2.8603 0.51942 -3.31177
2808 2 -6.54116 1.56324 -3.7446
2576 1 -6.24122 2.26519 -4.3746
88 1 -7.04742 2.93504 -4.00594
745 1 -6.20011 2.95011 -3.88619
3154 2 -6.17172 2.03493 -3.44607
3203 2 -7.14891 2.17065 -3.30917
1218 1 -5.32954 2.057 -3.99736
872 1 -4.86158 2.53643 -3.58792
2006 1 -4.14019 2.47213 -3.6598
2913 2 -3.83928 1.5109 -4.2809
2541 1 -4.09847 2.42857 -4.37318
27 1 -3.31389 2.86325 -4.18404
2754 2 -2.89493 1.54617 -3.92201
2487 1 -2.92575 2.92587 -3.46718
1086 1 -3.60621 2.11616 -3.28092
996 1 -5.94624 3.69901 -3.77681
955 1 -6.86004 3.4509 -3.37078
3548 2 -7.03225 4.16786 -4.00807
1272 1 -5.47772 3.34812 -4.29575
421 1 -5.40181 3.04401 -3.15438
2855 2 -4.68559 3.76835 -3.85128
2906 2 -4.69019 4.24622 -3.19302
3372 2 -4.04336 3.66651 -4.22369
1592 1 -2.74966 3.55945 -3.89527
2347 1 -3.59596 3.42336 -2.96611
1825 1 -2.95489 4.03596 -3.15731
2138 1 -6.551 5.14242 -4.14034
1608 1 -7.39114 5.30488 -4.22049
335 1 -6.06503 4.96022 -3.59311
718 1 -7.20301 5.29851 -3.27033
57 1 -5.45349 5.75621 -4.28055
454 1 -5.39494 4.64904 -4.40907
2456 1 -4.48978 5.2088 -4.14322
280 1 -5.21065 5.68864 -3.30721
1751 1 -4.22663 5.62479 -3.16797
1528 1 -3.78914 5.73154 -4.21651
1228 1 -3.59816 4.84667 -4.0033
1578 1 -2.597 4.81609 -3.7497
190 1 -3.01947 5.64916 -3.57515
2945 2 -6.69799 7.27757 -3.98009
2806 2 -6.36386 6.65531 -4.21498
2193 1 -6.05071 6.15546 -3.21735
983 1 -6.80499 6.00815 -3.45971
1555 1 -4.73566 6.15228 -4.13592
2374 1 -5.33693 7.11885 -4.35535
2384 1 -5.4428 6.61963 -3.72607
2191 1 -4.8595 6.97494 -3.49381
2482 1 -5.07036 6.39745 -2.97623
3152 2 -3.88943 6.40945 -3.48275
3179 2 -2.88914 6.75337 -4.0701
2935 2 -3.66419 7.20625 -3.62062
1796 1 -6.59744 0.0630938 -2.22646
3504 2 -7.29666 0.928164 -1.58626
2524 1 -7.22294 1.13458 -2.63192
1603 1 -5.93956 1.42962 -1.58836
72 1 -6.30752 1.0354 -2.36628
378 1 -4.97936 0.699345 -2.26068
1000 1 -5.72152 0.240698 -2.28751
1738 1 -5.20034 1.20056 -1.68061
2270 1 -4.43527 1.2599 -2.59695
3171 2 -4.04088 0.526551 -1.86577
3168 2 -3.87184 0.109462 -2.57768
623 1 -3.12736 1.44225 -1.71315
3210 2 -3.22146 0.506567 -1.75079
3112 2 -6.58958 2.16576 -1.91452
3411 2 -6.5043 2.28689 -2.74467
207 1 -5.21775 2.35188 -2.83364
3257 2 -4.74677 2.16951 -1.81304
154 1 -5.71467 2.37473 -1.72315
400 1 -5.16963 1.56709 -2.64705
597 1 -3.85821 1.62691 -2.15958
3026 2 -4.00543 2.54706 -2.26992
1883 1 -2.91879 1.52419 -2.7303
752 1 -2.76643 2.35606 -1.57372
2092 1 -2.86155 2.70464 -2.45985
2102 1 -6.05214 3.11729 -2.7453
424 1 -5.93025 3.29539 -1.95567
1122 1 -6.84635 3.59065 -1.77813
1324 1 -6.63923 3.67136 -2.37344
1155 1 -4.46571 3.14752 -2.88639
896 1 -5.1892 3.14381 -2.11507
3076 2 -5.48181 4.06722 -2.76571
3169 2 -4.45089 3.98551 -2.00929
2630 1 -5.69082 3.81035 -1.61
3394 2 -3.74435 4.08347 -1.78392
26 1 -2.55523 3.20584 -1.69221
3046 2 -6.2497 4.71286 -2.36878
1070 1 -6.21663 5.63301 -1.62612
2861 2 -6.61142 4.59548 -1.57273
1242 1 -6.83886 5.69559 -2.40174
3492 2 -4.49659 5.69339 -1.86525
2025 1 -5.48266 4.92595 -1.55287
2391 1 -5.3924 5.37381 -2.41889
1028 1 -4.715 5.08208 -2.57581
3318 2 -4.04495 4.91046 -1.65968
3308 2 -3.73713 5.77582 -1.6222
1989 1 -2.74227 5.74581 -2.69513
2148 1 -3.47527 4.78194 -2.64203
1577 1 -3.44244 5.59289 -2.60538
2751 2 -3.01007 5.3751 -1.48663
3090 2 -2.65881 4.87178 -1.8203
3149 2 -6.18806 7.11185 -2.94135
2206 1 -6.13576 6.08618 -2.42566
961 1 -7.37227 6.59262 -2.48253
3444 2 -6.52352 6.93546 -1.99308
1722 1 -4.88603 7.33988 -2.64457
2272 1 -5.31688 6.87474 -2.12845
1013 1 -5.41219 6.17021 -2.13476
808 1 -4.33884 6.67503 -2.47561
919 1 -2.6477 7.26073 -2.85024
2364 1 -3.43456 7.39488 -2.05846
512 1 -3.1207 6.34719 -2.39369
1585 1 -2.87201 6.95268 -1.67751
189 1 -7.35002 0.584869 -0.530628
2951 2 -6.3217 0.487962 -1.17921
1410 1 -6.45399 1.18812 -0.370818
308 1 -4.7004 1.33899 -0.940285
672 1 -5.16274 0.503672 -0.980831
2612 1 -5.66579 0.69891 -0.165376
455 1 -3.71 1.06873 -0.80415
1589 1 -3.37684 0.210232 -0.619211
2775 2 -2.48384 0.99269 -0.659232
1897 1 -7.14074 1.65789 -0.935295
974 1 -5.89948 1.70366 -0.729317
2028 1 -6.67182 2.34983 -0.765096
1653 1 -7.22317 2.34469 -0.261816
595 1 -7.37525 2.95766 -1.25307
1827 1 -5.04293 2.20737 -0.0686456
1941 1 -5.33033 2.95383 -1.01078
1869 1 -4.1712 2.61198 -0.103464
2356 1 -4.43874 2.83959 -0.986756
106 1 -3.41766 2.75328 -1.4136
1736 1 -2.95167 2.01863 -0.617756
2417 1 -3.5974 1.96672 -1.07991
301 1 -6.36483 3.24663 -1.13828
2077 1 -7.32907 3.96759 -1.15147
2144 1 -6.72954 3.89556 -0.420782
2560 1 -5.12339 3.18817 -0.0775186
370 1 -4.45348 3.55054 -1.03215
1258 1 -5.66792 3.83221 -0.779997
2362 1 -4.8972 4.11353 -0.559065
537 1 -4.18436 4.28986 -0.81506
1420 1 -5.08156 4.26061 -1.34356
1717 1 -3.44101 3.20545 -0.747103
1231 1 -2.87642 3.87788 -1.0279
882 1 -6.69485 5.48482 -0.719701
2511 1 -6.01501 4.89235 -0.505125
3065 2 -7.26522 4.96252 -1.33472
77 1 -6.69958 4.55891 -0.17541
635 1 -5.09705 5.49478 -1.01283
1219 1 -4.22887 5.7256 -0.559399
203 1 -3.44221 4.48341 -0.707064
322 1 -3.65707 5.2174 -0.43469
1579 1 -7.2994 6.9944 -1.1666