ITEM: TIMESTEP
0
ITEM: NUMBER OF ATOMS
3594
ITEM: BOX BOUNDS pp pp pp
-7.2127910691707218e+00 7.2127910691707218e+00
-7.2127910691707218e+00 7.2127910691707218e+00
-7.2127910691707218e+00 7.2127910691707218e+00
ITEM: ATOMS id type x y z
2337 1 -6.13421 -6.7064 -6.28307
22 1 -5.26761 -6.41668 -6.65108
1596 1 -5.25608 -6.20781 -5.74437
3224 2 -4.12668 -6.69767 -6.61012
1696 1 -4.16458 -5.84645 -7.19736
2911 2 -3.54918 -6.08393 -6.09045
3333 2 -2.67306 -5.81995 -5.75545
1781 1 -2.10489 -6.11543 -6.70621
1620 1 -1.95286 -6.4456 -5.84017
729 1 -2.5128 -6.76645 -6.46065
1847 1 -2.80013 -6.64203 -7.16568
1406 1 -0.430647 -5.81931 -5.92912
189 1 -1.35396 -6.12581 -6.61491
2328 1 -0.240966 -7.09734 -6.94301
997 1 -0.321712 -6.19563 -6.82593
3017 2 -0.583334 -6.66254 -5.64789
2920 2 -1.06213 -7.13952 -6.20578
3498 2 -6.13249 -5.74638 -6.77703
1286 1 -6.27432 -4.66356 -6.85313
2526 1 -7.05184 -4.55504 -7.09217
1851 1 -7.003 -4.7866 -6.23939
2428 1 -6.73384 -5.64684 -6.03617
1607 1 -6.46522 -4.54863 -5.67181
2825 2 -5.64541 -5.18509 -6.27406
530 1 -4.55785 -5.76734 -6.11372
1528 1 -5.33221 -4.39701 -6.90164
2046 1 -4.82404 -5.23174 -6.83496
446 1 -4.0479 -5.13254 -6.43271
2796 2 -3.61971 -4.34728 -6.90847
1284 1 -3.06425 -4.72214 -5.84355
1297 1 -3.43688 -5.40636 -6.83917
911 1 -2.32875 -4.6143 -6.53387
963 1 -1.82046 -5.19344 -6.34091
1391 1 -2.35922 -5.57324 -6.9605
1772 1 -1.29527 -5.6669 -5.8848
3300 2 -0.8155 -4.63468 -6.33093
3439 2 -0.699406 -4.79061 -7.0102
2634 1 -6.09351 -4.09299 -6.11399
1608 1 -6.6313 -3.44874 -6.35889
1824 1 -4.63058 -3.97431 -6.57226
192 1 -5.21741 -3.92322 -6.06323
3545 2 -5.65826 -3.2244 -6.77632
864 1 -4.32781 -3.20133 -6.34957
857 1 -4.47603 -3.5433 -7.19179
1474 1 -4.2204 -3.92836 -5.89649
3512 2 -3.23986 -3.76242 -6.42182
1938 1 -1.7279 -3.91076 -6.07724
1448 1 -2.39487 -4.31976 -5.73198
927 1 -1.5841 -3.73881 -6.92967
3180 2 -2.7303 -3.32479 -6.21852
3209 2 -2.12551 -2.96918 -5.91534
3113 2 -0.0825234 -4.14588 -5.68187
2619 1 -1.05361 -3.56457 -5.80837
1748 1 -0.744049 -3.54936 -6.72313
1677 1 -0.00875692 -3.03692 -6.55953
98 1 -6.15147 -2.00146 -6.06523
1584 1 -6.5924 -1.79313 -6.80937
2378 1 -6.5971 -2.73796 -5.90552
2660 1 -6.7122 -2.66169 -6.83826
3462 2 -5.42689 -2.73738 -6.2702
1650 1 -4.86833 -1.66839 -6.37537
2430 1 -4.57277 -2.55019 -6.75388
1822 1 -5.56061 -1.99358 -6.96841
2307 1 -4.15749 -1.58102 -6.73993
1867 1 -3.69212 -2.40602 -6.45558
429 1 -2.9792 -2.18125 -6.00517
2274 1 -2.25426 -1.65671 -5.98691
904 1 -2.59614 -2.41121 -6.65352
151 1 -1.6415 -1.97597 -6.36825
2744 2 -0.0665689 -1.65264 -5.96467
263 1 -0.795869 -2.8006 -6.2201
3433 2 -0.333552 -1.84897 -6.69035
1299 1 -0.0816298 -2.6258 -5.66608
825 1 -1.37419 -2.80275 -6.74011
2908 2 -0.761032 -2.20311 -7.1882
1163 1 -6.27463 -0.0500788 -6.95119
814 1 -6.08352 -1.22721 -6.44829
2094 1 -6.47008 -0.0449181 -5.98977
160 1 -6.88167 -0.44414 -6.44449
2963 2 -5.0541 -0.788446 -6.97506
503 1 -5.52336 -1.4229 -5.99211
2227 1 -4.38061 -0.901714 -5.81095
1978 1 -5.68194 -0.439746 -5.76526
2947 2 -4.83014 -0.112295 -6.63121
2426 1 -3.68763 -0.627332 -6.5564
950 1 -3.58973 -1.38301 -6.02473
3080 2 -2.55563 -0.589056 -6.38596
2954 2 -2.84851 -1.27743 -6.90671
1905 1 -1.63804 -1.34217 -6.8808
604 1 -1.5379 -0.145795 -6.1871
121 1 -0.287495 -0.57179 -6.07887
1812 1 -1.04001 -0.671238 -6.70254
2066 1 -0.149495 -0.8675 -7.0678
808 1 -1.28022 -1.26721 -5.8423
855 1 -5.80153 -6.24722 -4.78816
155 1 -6.32397 -6.05184 -5.45245
1850 1 -6.48228 -7.06074 -4.38667
3584 2 -6.98623 -5.90284 -4.31574
2015 1 -6.6336 -7.10133 -5.27692
2021 1 -4.72677 -6.10541 -4.98739
3226 2 -5.08582 -7.14287 -4.76655
3238 2 -4.41054 -6.81923 -4.23631
2254 1 -4.31605 -6.49673 -5.43888
2704 1 -3.65831 -6.665 -5.12853
1032 1 -3.39946 -6.01486 -4.53156
1018 1 -3.29313 -7.1739 -4.20503
1328 1 -2.88889 -7.11333 -5.39632
680 1 -1.58399 -6.13211 -5.18704
1226 1 -2.02456 -5.8916 -4.06117
214 1 -2.78139 -6.64529 -4.78211
206 1 -2.12187 -6.91787 -5.12065
1393 1 -1.17724 -5.90196 -4.13413
2829 2 -0.348674 -6.18685 -4.93598
2673 1 -1.1649 -6.6905 -4.54569
560 1 -6.97443 -4.70493 -5.05733
1456 1 -6.27787 -5.24831 -4.93787
1874 1 -6.91774 -4.56262 -4.19923
745 1 -6.06611 -4.33395 -4.41777
935 1 -5.57825 -5.3236 -4.46147
3476 2 -5.1098 -4.46389 -4.96814
3521 2 -5.27875 -5.09295 -5.59995
72 1 -4.52834 -5.47728 -4.5124
1498 1 -3.98004 -4.93752 -5.54596
148 1 -3.67503 -4.34806 -4.99017
2279 1 -4.08962 -5.70301 -5.26844
2096 1 -3.45394 -5.10699 -4.60313
702 1 -1.56938 -4.83805 -5.51858
3443 2 -2.36875 -4.96317 -4.74933
2930 2 -2.63957 -5.49682 -5.27906
1291 1 -1.20857 -4.3991 -4.83283
389 1 -1.09063 -5.46392 -4.92226
2385 1 -0.305715 -4.48675 -4.70956
2117 1 -0.592735 -5.11429 -4.27009
535 1 -0.050916 -5.17375 -5.11858
528 1 -6.06211 -3.87216 -5.28338
3156 2 -6.73043 -3.44198 -4.60394
2503 1 -6.06755 -3.15695 -5.54904
3003 2 -4.50002 -3.97173 -4.67664
624 1 -4.65274 -3.20566 -5.2898
1048 1 -5.38033 -3.4458 -5.34049
567 1 -5.48343 -3.52662 -4.38908
2769 2 -3.92007 -3.63592 -4.13213
2585 1 -3.79001 -3.27202 -5.59861
1097 1 -3.16041 -3.94113 -5.35497
2509 1 -3.00569 -2.95519 -4.80206
210 1 -1.61419 -3.75223 -4.25672
821 1 -1.95438 -3.98745 -5.03636
2675 1 -2.66499 -3.82898 -4.7962
2086 1 -0.762898 -4.14335 -4.133
842 1 -1.02324 -3.47472 -4.82055
1600 1 -6.14645 -2.00237 -4.37016
2176 1 -6.6179 -2.3352 -5.08106
2924 2 -6.41623 -2.8237 -4.05103
299 1 -5.81874 -2.42696 -5.21155
674 1 -5.45982 -1.68172 -4.99243
1995 1 -5.06524 -2.23257 -4.28334
3157 2 -4.69666 -2.24934 -5.54315
2350 1 -5.31984 -2.77903 -4.77771
2394 1 -4.1238 -2.72658 -4.57612
3193 2 -4.15947 -2.00326 -5.15937
717 1 -3.18383 -2.42385 -4.36099
2359 1 -3.34805 -2.72521 -5.34563
2735 2 -3.57424 -1.49897 -4.76409
1561 1 -2.40237 -1.49394 -4.42835
2162 1 -1.88021 -1.72332 -5.0136
3192 2 -2.03959 -2.87376 -5.15619
3037 2 -1.67519 -2.76381 -4.33219
135 1 -2.81346 -1.9917 -5.17834
1720 1 -0.533511 -2.61879 -4.99314
1732 1 -0.972096 -2.75626 -5.42946
2401 1 -0.897106 -1.78183 -5.18461
2354 1 -0.376837 -2.13001 -4.38269
1195 1 -7.11554 -0.157012 -4.726
2758 2 -6.26055 -1.03127 -5.13016
2981 2 -5.96312 -0.466725 -4.33656
2875 2 -6.76226 -1.24837 -5.54758
2387 1 -5.06927 -1.40626 -4.44908
52 1 -4.51383 -0.658628 -4.39466
1692 1 -5.08157 -0.929852 -5.28317
2318 1 -4.60457 -0.30929 -5.02086
2326 1 -3.62233 -0.0824742 -4.62951
2788 2 -3.65698 -1.09139 -4.21497
586 1 -3.84292 -0.510522 -5.2926
1907 1 -3.30339 -0.0352686 -5.34641
33 1 -2.46464 -0.367745 -5.26796
2893 2 -1.50643 -0.617424 -5.04376
2641 1 -2.58878 -0.688649 -4.58065
1714 1 -2.79033 -1.15852 -5.50376
2204 1 -1.94008 -0.445532 -4.15735
97 1 -0.515534 -0.429349 -4.11772
734 1 -1.1058 -1.39104 -4.4167
1287 1 -0.398467 -0.0115226 -5.4581
2180 1 -0.561452 -0.795165 -4.92744
2045 1 -6.09927 -6.21469 -3.8065
1577 1 -7.02491 -7.05892 -3.81166
62 1 -6.48813 -6.54755 -3.09011
546 1 -5.6015 -7.12686 -3.68437
1335 1 -5.36042 -5.87465 -3.94211
813 1 -5.53621 -6.14529 -3.2278
486 1 -4.60546 -6.18067 -2.64717
2833 2 -5.57878 -7.15648 -2.481
2414 1 -4.98898 -6.71003 -3.2057
132 1 -5.75166 -6.01911 -2.56735
3297 2 -4.16576 -6.23939 -3.73825
364 1 -4.27209 -7.1866 -3.11083
2000 1 -3.75081 -6.66897 -2.57651
2527 1 -3.34894 -6.92727 -3.4037
3002 2 -1.60245 -6.9603 -3.6698
2419 1 -2.85057 -6.17422 -3.88881
2453 1 -2.54502 -6.93696 -2.85443
563 1 -2.37017 -6.12699 -3.16846
1427 1 -2.00058 -5.80341 -2.42042
2260 1 -0.436819 -6.3379 -3.99715
2305 1 -0.454576 -7.19766 -3.95605
3372 2 -1.32455 -6.75161 -2.90225
1001 1 -0.0608216 -6.39436 -3.10401
3569 2 -6.44182 -5.24982 -3.75587
679 1 -6.85955 -5.7187 -2.61976
3137 2 -6.0014 -5.03203 -3.10772
2608 1 -5.08593 -5.05015 -3.7336
3228 2 -5.42071 -4.60358 -2.56264
2125 1 -4.85406 -5.69802 -3.07622
618 1 -4.29008 -4.96724 -3.75948
2799 2 -3.71028 -5.7248 -3.04486
1956 1 -3.62046 -4.5161 -2.98491
308 1 -3.12283 -5.24379 -3.8063
2715 1 -3.37074 -4.51627 -3.96524
3367 2 -1.84638 -4.74232 -3.93298
1784 1 -2.62412 -4.73623 -3.103
1769 1 -1.67483 -5.43941 -3.18693
1807 1 -0.744158 -5.63595 -3.50252
2383 1 -0.118931 -5.24751 -2.67654
3356 2 -1.13991 -4.39539 -3.07421
1754 1 -5.96174 -3.81501 -3.65539
2157 1 -6.79414 -4.0118 -3.48189
632 1 -6.48172 -4.32026 -2.44472
714 1 -7.07085 -3.23188 -3.0652
1537 1 -6.56232 -2.908 -2.63486
239 1 -5.89026 -3.60231 -2.71541
2480 1 -4.62315 -4.2609 -3.47885
2582 1 -5.15344 -3.73469 -3.21258
1136 1 -4.74758 -3.19228 -3.72802
2459 1 -4.94806 -3.21827 -2.46254
2517 1 -4.31659 -3.69459 -2.90878
319 1 -3.41613 -3.98865 -2.41794
2756 2 -3.4516 -3.31424 -3.17194
47 1 -2.4639 -3.8211 -3.97524
801 1 -2.28031 -3.92393 -2.87754
2208 1 -1.88144 -3.53363 -3.47507
3435 2 -0.999638 -3.71876 -2.44963
1028 1 -0.978626 -3.42257 -3.68233
1373 1 -0.225928 -3.41209 -3.20201
2244 1 -7.15649 -2.3273 -3.63168
1108 1 -7.05679 -2.29382 -2.6722
2278 1 -6.22794 -2.21738 -2.4073
1386 1 -6.34861 -1.74021 -3.27054
2601 1 -6.02307 -1.56232 -2.54393
3401 2 -5.7869 -2.57081 -3.39115
866 1 -5.54039 -1.4647 -3.86129
3508 2 -4.93201 -1.85062 -2.60229
3314 2 -5.00618 -2.35283 -3.12183
2128 1 -3.96567 -2.37123 -3.82208
1733 1 -3.64184 -2.00445 -2.51641
1544 1 -4.13547 -2.68601 -2.70479
136 1 -4.03819 -1.82426 -3.31301
3235 2 -2.99475 -2.75332 -2.43885
1348 1 -3.33668 -2.18848 -3.59338
2541 1 -3.21098 -1.53546 -3.1346
640 1 -2.64401 -2.67339 -3.89445
362 1 -2.20931 -2.14371 -3.11521
1324 1 -2.30223 -2.86118 -3.10742
3200 2 -1.25382 -2.15359 -3.64479
1266 1 -0.288618 -2.74282 -3.90457
3541 2 -0.780529 -1.63881 -3.27932
477 1 -0.575632 -2.63407 -2.65793
216 1 -1.34534 -2.59594 -2.9176
1805 1 -6.84843 -1.21376 -3.9147
1986 1 -6.24022 -0.509074 -3.24235
407 1 -4.60811 -1.43252 -3.81082
1256 1 -5.51656 -0.870503 -2.98949
2132 1 -4.35556 -0.548464 -3.0225
1574 1 -3.65609 -0.88547 -2.74542
3441 2 -3.20166 -0.657576 -3.88665
867 1 -1.59436 -0.944971 -3.71112
1434 1 -1.93645 -1.41535 -2.66909
768 1 -1.48263 -0.88521 -2.46961
2851 2 -2.75558 -0.331542 -2.9606
3031 2 -2.1261 -0.122769 -2.5047
2219 1 -2.35757 -1.39981 -3.57006
3127 2 -0.405927 -1.22424 -2.69754
1858 1 -0.250277 -0.424969 -3.33735
439 1 -1.07673 -0.141214 -3.25706
124 1 -6.27873 -5.85306 -1.99473
1056 1 -7.03816 -6.99631 -1.16948
1520 1 -6.66598 -6.55229 -2.06106
551 1 -7.18743 -7.1673 -2.28905
1369 1 -6.263 -7.16286 -1.33882
1734 1 -5.99079 -6.24708 -1.10327
3225 2 -4.79171 -6.28571 -1.13374
2733 2 -5.17569 -6.87129 -1.6914
649 1 -4.35064 -7.20917 -2.0721
2370 1 -3.77768 -6.09118 -1.58526
2539 1 -3.84583 -7.1583 -1.239
616 1 -3.28649 -6.0897 -0.955697
2200 1 -2.63067 -6.39894 -2.21065
744 1 -2.21557 -6.12153 -1.56047
2161 1 -1.82882 -6.90774 -1.93675
229 1 -1.1425 -6.77337 -0.993219
3176 2 -0.8065 -6.36298 -2.32127
2741 2 -0.0965837 -6.06774 -1.64647
1500 1 -0.0809013 -7.1245 -1.52077
2099 1 -1.40281 -6.25879 -1.36006
2087 1 -7.04695 -5.02236 -2.34478
1444 1 -6.26292 -4.87448 -1.64372
1419 1 -7.14081 -4.56202 -1.60559
1074 1 -5.39807 -4.98607 -1.39571
657 1 -4.63104 -5.52095 -2.1099
2294 1 -5.60174 -5.58442 -0.996254
2171 1 -5.26443 -5.64953 -1.93931
3241 2 -4.82596 -4.35617 -2.11587
2381 1 -4.56773 -5.26554 -1.19785
438 1 -3.86348 -5.28571 -1.36489
1996 1 -3.76931 -4.72036 -1.99478
2906 2 -3.12405 -5.45031 -2.36399
737 1 -2.51814 -5.63481 -0.84183
3370 2 -2.5999 -5.08423 -1.76124
2390 1 -1.62917 -5.35371 -1.51179
3034 2 -2.63093 -4.50128 -1.27804
172 1 -1.85578 -4.65419 -2.38561
1497 1 -1.19143 -4.78258 -1.55352
1509 1 -1.16325 -5.2267 -2.2267
682 1 -0.556809 -4.89752 -1.99917
741 1 -6.35629 -4.07743 -0.95935
3342 2 -6.64 -3.2908 -1.32022
3338 2 -7.03517 -3.53338 -1.94871
1135 1 -5.68768 -4.3043 -1.45154
3352 2 -4.48635 -3.999 -1.57245
2422 1 -5.66655 -3.71406 -1.91158
209 1 -5.12475 -3.30866 -1.66129
3213 2 -4.28726 -3.63189 -0.934122
1941 1 -4.05811 -3.30049 -2.0863
1756 1 -3.45429 -3.84048 -1.56915
743 1 -3.41328 -3.0661 -1.69858
1452 1 -2.57568 -3.72673 -2.11449
3354 2 -1.7621 -4.14043 -0.926761
2124 1 -2.15499 -3.36581 -1.50275
746 1 -2.76168 -3.1457 -0.900737
218 1 -1.87907 -3.35961 -2.39703
1869 1 -0.397627 -4.3185 -1.08673
3299 2 -0.492556 -3.52219 -2.00201
1321 1 -1.01239 -3.37214 -1.16326
2443 1 -6.78729 -2.19613 -1.89576
905 1 -6.40233 -1.66186 -1.4884
3413 2 -6.14073 -2.75643 -1.14845
1294 1 -4.93994 -1.73108 -0.869341
693 1 -5.75962 -2.67386 -1.94482
2972 2 -4.66261 -1.46863 -2.03896
654 1 -4.89679 -2.6373 -1.22405
1154 1 -5.64695 -1.60763 -1.31093
10 1 -4.48842 -2.77756 -1.93433
2152 1 -4.00454 -2.3342 -1.65021
781 1 -3.44751 -1.66162 -1.87347
163 1 -3.45508 -2.37623 -1.13139
3440 2 -2.49185 -2.24708 -1.65097
751 1 -1.57619 -1.9563 -2.04063
3138 2 -2.05365 -1.72241 -1.04022
1603 1 -1.59425 -2.70853 -0.815965
860 1 -1.54911 -2.85091 -1.86833
1209 1 -0.849887 -2.34187 -2.05103
212 1 -0.977944 -2.27553 -1.17906
653 1 -0.396011 -1.69995 -1.16242
3125 2 -0.152523 -2.85363 -1.50073
2763 2 -6.92039 -0.468421 -2.12035
1323 1 -6.98301 -0.738285 -1.04223
3467 2 -6.2243 -0.464498 -1.77822
2990 2 -5.96701 -0.0587123 -1.19243
2212 1 -5.16153 -0.663698 -2.22891
1775 1 -5.22697 -0.717902 -1.15524
45 1 -5.02602 -0.0614469 -1.9736
1688 1 -4.72073 -0.0747905 -1.18435
3270 2 -3.79038 -0.567658 -0.874836
3220 2 -4.13672 -1.11743 -1.44933
55 1 -3.82278 -0.0271158 -2.16552
2242 1 -2.71961 -1.33808 -2.26935
1469 1 -2.03046 -0.488274 -1.072
2255 1 -1.85859 -0.995591 -1.79512
918 1 -2.85192 -1.03921 -0.840247
1595 1 -2.86488 -0.6849 -1.69315
1884 1 -0.123842 -0.821303 -1.10345
262 1 -0.873201 -1.35087 -1.66556
2642 1 -1.08315 -0.475308 -1.15222
1139 1 -0.770985 -0.528899 -2.18609
2694 1 -0.12577 -0.154601 -1.03953
785 1 -6.70084 -6.44811 -0.466189
2369 1 -6.02668 -6.00141 0.670171
2361 1 -6.61606 -6.26795 0.252155
2974 2 -6.38412 -7.14337 0.597923
901 1 -5.67923 -6.30904 -0.469606
3438 2 -4.52724 -5.85605 -0.454592
470 1 -5.03788 -7.096 -0.0625272
385 1 -4.84637 -7.00979 0.797457
1501 1 -4.46322 -6.29377 0.534615
2436 1 -5.20869 -6.11264 0.32633
2589 1 -4.10479 -6.84005 -0.41234
1740 1 -3.21661 -6.84214 -0.366867
173 1 -3.0981 -6.06252 -0.109812
1848 1 -3.58179 -6.36373 0.648002
3030 2 -2.03655 -6.7249 -0.410248
2605 1 -2.82566 -6.98093 0.503003
2614 1 -2.52547 -6.05897 0.780084
2771 2 -1.82573 -6.16498 0.0902806
423 1 -0.461195 -7.07271 -0.556466
2578 1 -0.724956 -6.06074 -0.671256
3391 2 -1.06775 -6.03476 0.793576
641 1 -0.144533 -6.50072 0.781544
2928 2 -1.29525 -6.56952 0.274688
3058 2 -6.29438 -5.15969 -0.250345
3529 2 -6.8856 -5.33372 -0.720531
77 1 -6.93189 -4.53113 0.490103
1025 1 -6.0042 -5.28998 0.705266
2170 1 -5.23257 -5.26148 -0.1405
1554 1 -5.06396 -4.45534 -0.710244
1356 1 -4.85939 -5.21604 0.724519
2520 1 -3.86598 -4.64449 -0.769777
3263 2 -3.99244 -5.45488 0.0755077
3231 2 -3.8289 -5.04201 0.724216
1879 1 -3.00911 -5.11891 -0.356564
113 1 -2.22498 -4.76631 -0.286137
677 1 -1.66035 -5.58984 -0.79902
489 1 -1.56336 -4.9817 0.334765
7 1 -2.4042 -5.43186 0.0449533
1844 1 -2.77954 -4.39492 0.195331
175 1 -1.84639 -5.3062 0.787895
2142 1 -1.30472 -5.11203 -0.212027
2416 1 -0.762953 -4.90942 -0.741084
293 1 -0.681361 -5.5221 -0.277939
341 1 -0.0967281 -5.70444 0.358892
251 1 -0.617438 -4.47189 0.096801
656 1 -0.121671 -4.97931 0.691139
2724 1 -6.87888 -3.93683 -0.298305
660 1 -6.03554 -3.40287 -0.263129
2010 1 -6.7732 -3.50486 0.467289
2701 1 -7.02659 -2.90687 0.14288
51 1 -5.55059 -3.67577 -0.677947
933 1 -4.39916 -4.25831 -0.0592207
2988 2 -5.6563 -4.29641 0.306808
1009 1 -5.23846 -3.19795 -0.274206
162 1 -4.32955 -3.04601 0.770151
1236 1 -5.36197 -2.96866 0.481233
2293 1 -4.61508 -3.57986 0.439507
1402 1 -3.61131 -4.21723 0.213938
2692 1 -3.70678 -3.64303 0.718359
3302 2 -4.14746 -2.97248 -0.436224
1453 1 -3.23213 -4.15045 -0.579348
890 1 -2.94232 -3.79687 0.67316
3061 2 -3.5215 -3.19889 -0.234724
2985 2 -1.4922 -3.86576 -0.336917
1000 1 -2.43552 -3.7617 -0.0796827
2111 1 -1.70045 -4.15766 0.763423
2702 1 -0.106557 -3.84382 -0.454039
1643 1 -0.618262 -3.16817 -0.514683
3418 2 -1.32944 -3.36464 0.258295
2891 2 -6.22175 -2.44291 -0.458991
1030 1 -6.75311 -1.72329 0.526587
2899 2 -5.85782 -1.91833 0.0981609
199 1 -5.03727 -2.43456 -0.546567
3466 2 -5.37891 -1.60395 0.516167
1806 1 -4.5608 -2.264 0.0939663
965 1 -3.79243 -1.57931 -0.0941129
1835 1 -4.10609 -1.93603 -0.732737
1506 1 -3.00222 -1.64228 -0.5837
3089 2 -2.93285 -2.27346 0.799469
2784 2 -3.31157 -2.65015 0.271508
1187 1 -2.72552 -2.31453 -0.474559
102 1 -2.34203 -2.82828 -0.109765
20 1 -2.491 -1.50524 0.147822
988 1 -1.90823 -2.04915 0.187984
1081 1 -0.308118 -1.76147 -0.321853
3557 2 -1.36173 -1.57006 -0.63337
707 1 -0.254997 -2.74333 -0.0366352
588 1 -1.06991 -2.45513 -0.0850579
1702 1 -0.530222 -1.76302 0.575222
2285 1 -6.71846 -1.38491 -0.541913
1533 1 -6.51175 -0.667533 -0.367272
2215 1 -6.77696 -0.0528023 -0.250499
2201 1 -6.07352 -0.0837017 0.440001
1459 1 -6.42315 -0.871375 0.545865
130 1 -4.5769 -1.24138 -0.247563
1181 1 -5.60188 -1.15822 -0.566678
883 1 -4.77166 -0.349813 -0.163389
1846 1 -5.07285 -0.0336275 0.755933
246 1 -5.60221 -0.577326 0.0192804
90 1 -4.29105 -0.628814 0.415279
38 1 -3.10804 -1.30344 0.318275
3575 2 -3.41248 -0.336928 0.0261415
1015 1 -2.17593 -0.658096 -0.0997037
1507 1 -2.09398 -1.02946 0.755766
3567 2 -1.30074 -0.909688 -0.32936
1146 1 -1.39343 -0.416268 0.687115
2750 2 -0.0978277 -0.534793 0.671218
2810 2 -0.638435 -0.690786 0.0826098
440 1 -6.57773 -5.81155 1.71801
1398 1 -6.34024 -6.55105 2.24654
146 1 -6.79709 -7.05729 1.87942
2484 1 -6.90658 -6.33459 1.19629
1365 1 -7.08177 -6.35516 2.18816
3152 2 -5.08004 -6.05722 2.10134
3112 2 -5.38894 -6.178 1.3514
2316 1 -5.10755 -7.1437 2.30185
3526 2 -5.75963 -6.90316 1.25829
1405 1 -4.11758 -6.3142 1.53406
2393 1 -4.25078 -7.14161 2.39283
1932 1 -3.04794 -6.09809 1.32828
881 1 -1.84344 -6.45178 1.57006
3378 2 -2.70642 -6.83221 2.13398
1247 1 -2.17564 -6.85927 0.960405
2455 1 -1.47386 -5.84788 2.10329
106 1 -0.612307 -7.11475 1.30068
369 1 -0.462696 -6.56163 2.08299
1197 1 -1.17396 -6.78046 1.70885
2008 1 -6.7711 -5.44191 1.03466
2647 1 -6.52958 -4.427 1.53776
1387 1 -5.91441 -4.45367 2.16547
1279 1 -5.84592 -5.27517 1.67706
514 1 -4.61442 -5.32446 1.35855
2341 1 -4.41443 -4.34533 0.832523
2296 1 -5.19908 -4.76982 1.66656
2572 1 -3.89455 -5.65504 1.50825
907 1 -4.271 -4.73649 1.80852
2933 2 -3.08684 -4.99833 0.944483
3537 2 -3.03615 -4.57924 1.55742
242 1 -3.49816 -5.36234 2.18766
2559 1 -2.29795 -5.6635 1.54571
317 1 -1.75362 -4.9291 2.17726
2797 2 -2.3932 -4.59181 1.27724
3483 2 -0.701697 -5.60116 1.29006
1957 1 -1.38948 -4.88017 1.44316
1656 1 -0.728527 -4.58832 2.18961
623 1 -0.910327 -4.35597 0.954158
3454 2 -0.296864 -5.45357 1.94511
74 1 -7.10116 -3.86169 1.496
120 1 -6.33991 -3.23953 1.76678
902 1 -6.99341 -3.50542 2.1613
3500 2 -4.93091 -3.61064 1.57775
3468 2 -5.75007 -3.78864 0.917154
2903 2 -4.93009 -3.55968 2.32262
3252 2 -4.34714 -3.0175 1.86953
2597 1 -3.78127 -3.92464 1.52886
791 1 -3.61166 -3.4774 2.33497
2696 1 -3.21071 -3.42286 1.47819
2867 2 -2.50668 -4.11893 1.9504
1804 1 -1.51129 -3.61753 1.56966
1183 1 -2.31648 -3.29354 0.822539
374 1 -2.31005 -2.92066 1.43899
2504 1 -0.699601 -3.90939 1.73188
2072 1 -0.165273 -3.66246 0.958667
2889 2 -0.834024 -3.02194 1.11404
302 1 -6.1186 -2.05212 1.22483
1370 1 -5.77626 -2.61858 1.93802
1343 1 -6.40106 -2.73377 0.881971
2915 2 -6.6562 -1.98599 2.27406
3265 2 -7.08955 -2.31835 1.69629
727 1 -5.1874 -2.62648 1.21544
2024 1 -4.58655 -2.01904 1.96089
1580 1 -5.73957 -1.45316 1.76056
221 1 -5.50659 -2.00259 2.37641
773 1 -3.82575 -1.68023 1.83717
2077 1 -4.20547 -2.07074 0.936705
1320 1 -3.18244 -2.00622 2.25177
1849 1 -3.51755 -2.54675 1.84093
93 1 -1.52035 -2.08237 1.09437
2778 2 -1.934 -1.44666 2.23647
2822 2 -2.41135 -1.75663 1.40396
1182 1 -2.85878 -2.78508 2.05962
159 1 -1.63259 -2.80552 1.8222
1516 1 -0.962575 -1.88798 1.69457
1150 1 -1.00388 -2.84902 2.31278
2841 2 -0.130972 -2.56099 1.56136
2612 1 -7.16008 -1.2539 1.30923
235 1 -5.88335 -0.745955 1.30713
2938 2 -7.06196 -0.176562 1.06593
1049 1 -6.82349 -0.791131 2.07021
100 1 -5.87942 -0.595137 2.22934
3167 2 -4.86607 -1.10089 1.0479
225 1 -5.39625 -0.0475312 1.84923
3317 2 -4.49087 -0.660189 1.70989
1689 1 -3.92979 -1.26185 0.843615
1016 1 -3.84522 -0.124282 1.14155
1861 1 -3.36379 -1.29999 2.2296
1971 1 -3.14573 -0.345226 1.70958
839 1 -3.3203 -1.08859 1.29844
207 1 -2.52793 -0.656883 1.36438
91 1 -2.76147 -0.882511 2.35435
154 1 -1.69035 -0.156717 2.02997
956 1 -0.247203 -0.910251 1.9536
1710 1 -1.42866 -1.33572 0.899917
1695 1 -1.3292 -0.708345 1.59526
1776 1 -0.497958 -1.33471 1.3297
1547 1 -0.563852 -0.140247 2.22503
1994 1 -1.06054 -0.0706458 1.33989
3291 2 -6.63188 -6.64659 3.48031
344 1 -4.71459 -6.74475 2.94113
506 1 -5.55548 -6.42016 2.9597
2618 1 -5.03918 -6.3781 3.59869
1282 1 -3.82492 -6.42294 2.41338
316 1 -4.1408 -6.39916 3.50092
248 1 -3.31768 -5.92592 3.20422
947 1 -3.291 -6.70858 2.98793
49 1 -3.17484 -5.99826 2.48772
3559 2 -2.01217 -6.52689 2.73027
2960 2 -1.96355 -5.88178 3.37895
1221 1 -2.53035 -7.0098 3.5942
637 1 -2.86745 -6.34424 3.69543
3350 2 -1.54958 -5.80408 3.9798
1143 1 -0.831774 -6.06029 2.70966
615 1 -0.495588 -6.40579 3.35027
1724 1 -1.3381 -6.85455 3.64043
2236 1 -6.13037 -5.68894 2.53394
1964 1 -6.09277 -5.17779 3.32593
3543 2 -6.82017 -4.99832 2.77089
2165 1 -6.88276 -5.68885 3.63392
2749 2 -4.80057 -5.50915 2.61549
2638 1 -5.35634 -4.58107 3.02326
673 1 -5.36688 -5.57339 3.51225
1625 1 -4.94863 -4.60727 3.87369
2804 2 -4.27485 -5.37585 3.04156
3421 2 -3.76131 -4.96613 3.42986
336 1 -3.35033 -4.46703 2.46647
3242 2 -3.44026 -4.51156 3.98351
1121 1 -2.81527 -5.27229 3.40472
2388 1 -2.4927 -5.23286 2.4754
977 1 -2.4329 -4.51278 3.13935
1099 1 -1.65881 -4.95639 3.11191
1686 1 -2.31121 -4.44084 3.91806
197 1 -0.309824 -5.74476 3.52412
537 1 -0.922667 -5.25437 2.80877
2030 1 -0.579932 -5.07056 3.71891
1638 1 -1.42932 -4.50226 3.65275
80 1 -5.86124 -3.64705 2.63477
3561 2 -6.82084 -4.20851 2.84173
3324 2 -6.41755 -4.23949 3.52239
1134 1 -6.35115 -2.90618 2.69565
110 1 -6.69168 -3.02167 3.5074
305 1 -4.75229 -4.24218 3.2967
1735 1 -5.1445 -3.25642 3.5065
2746 2 -4.72156 -2.9247 2.60358
356 1 -4.02951 -3.94528 3.15487
2651 1 -4.1675 -4.21131 2.48536
937 1 -4.24848 -3.25474 3.63882
1137 1 -3.3485 -3.49081 3.1437
3417 2 -1.95645 -3.62617 2.54696
2588 1 -2.48287 -3.39215 3.8049
2602 1 -0.366334 -4.31344 3.14888
792 1 -1.14648 -4.05915 2.45423
294 1 -0.316287 -3.53334 2.4383
3360 2 -1.37337 -3.48968 3.36598
1184 1 -0.0144573 -3.06901 2.98652
2888 2 -1.15847 -2.93724 3.90124
3279 2 -6.00035 -1.60053 3.07149
41 1 -6.58217 -2.15839 3.38927
2091 1 -4.87403 -1.8709 3.29187
1014 1 -4.81801 -1.51799 2.45545
2560 1 -5.68472 -2.66472 3.11168
1751 1 -5.74137 -2.53358 3.89361
2846 2 -4.10723 -2.52628 3.075
2452 1 -3.95656 -1.5342 2.68
1364 1 -3.30138 -2.67568 2.70581
3217 2 -3.39004 -2.34376 3.70204
1345 1 -2.10286 -2.51785 2.41624
1991 1 -2.58209 -2.83713 3.08202
2418 1 -2.73119 -1.65618 2.79445
1767 1 -2.29552 -1.85101 3.23871
1567 1 -2.08727 -2.47546 3.486
1729 1 -1.41229 -1.73436 3.45574
1293 1 -0.99651 -2.26303 2.84368
982 1 -0.540873 -1.81398 3.40591
1308 1 -0.219029 -2.53528 3.80193
587 1 -6.52436 -0.518781 3.05073
507 1 -6.92206 -1.12285 3.39347
2513 1 -5.60491 -0.228427 3.29403
2275 1 -4.45858 -1.14631 3.53708
1642 1 -4.55919 -0.448893 3.44487
771 1 -5.04459 -0.776666 2.7975
2884 2 -5.56174 -1.23565 3.98777
3325 2 -4.04365 -0.486513 2.53613
2197 1 -3.46114 -1.30695 3.33939
3164 2 -3.37791 -0.0781004 2.94694
2713 1 -3.6009 -0.821435 3.97246
2519 1 -2.42307 -1.07336 3.48738
2068 1 -2.25322 -0.298135 2.91381
1770 1 -2.15652 -0.18101 3.84731
3070 2 -1.03256 -0.586647 3.18902
1026 1 -0.437022 -1.30555 2.67142
3315 2 -1.44063 -1.10115 2.68353
2755 2 -0.579392 -0.199818 3.71422
2866 2 -6.20131 -6.27062 4.04287
2852 2 -6.26978 -6.27653 4.9328
1213 1 -7.15972 -6.69206 4.57327
256 1 -5.92304 -7.21003 4.49285
443 1 -4.43574 -6.39884 4.34619
3172 2 -5.58917 -5.88857 4.57489
1661 1 -5.60475 -7.04708 5.26725
2306 1 -5.0161 -6.90989 4.68693
1679 1 -4.31665 -7.12507 4.94772
952 1 -4.25134 -6.19315 5.08545
3312 2 -3.35157 -6.53987 4.83078
2774 2 -2.88914 -6.37052 5.58951
1803 1 -1.76 -6.41001 4.9632
2172 1 -2.5427 -5.98475 4.4842
377 1 -2.2351 -6.98173 4.24672
1948 1 -2.35828 -7.00316 4.97223
149 1 -0.795956 -6.30643 4.98842
1888 1 -0.587773 -6.89374 4.23745
2313 1 -0.134312 -6.03892 4.37373
1937 1 -6.93037 -5.74874 5.39538
449 1 -6.19802 -4.99157 4.86678
596 1 -6.9331 -5.51357 4.66905
118 1 -6.72287 -4.96035 4.16109
1367 1 -4.57556 -5.46061 4.11199
3268 2 -5.22387 -5.5535 5.08498
869 1 -5.76868 -4.80702 4.06187
1758 1 -5.25175 -4.73957 4.61097
1194 1 -4.27506 -4.94816 4.69257
1377 1 -3.82813 -5.59237 5.03993
2342 1 -3.66876 -4.98478 5.50491
147 1 -2.99966 -5.33172 4.96341
1820 1 -3.52025 -5.64394 4.16253
2482 1 -2.0417 -5.57825 5.29144
2386 1 -2.17515 -4.74155 4.8702
1753 1 -2.56764 -5.37935 4.18271
749 1 -1.70824 -4.57498 5.6091
1229 1 -1.53646 -4.58306 4.3678
2816 2 -0.515079 -5.07597 4.88459
3124 2 -1.1306 -5.5481 4.56265
2276 1 -1.37578 -5.40467 5.58813
314 1 -5.77978 -3.65793 5.55275
3369 2 -5.90622 -3.70781 4.0437
1422 1 -5.78412 -4.29703 5.08091
2464 1 -6.63312 -4.23653 4.69486
521 1 -6.78674 -3.39711 4.36382
1424 1 -6.34943 -3.18886 4.97948
1041 1 -4.93651 -4.29854 5.60387
543 1 -4.51879 -4.21501 4.76809
1242 1 -4.46854 -3.77313 4.05996
3381 2 -5.35991 -3.33618 4.57123
2989 2 -4.96938 -3.20487 5.20157
845 1 -4.1189 -4.06179 5.52663
954 1 -3.99441 -3.22787 4.85109
3345 2 -3.32953 -4.13569 4.60395
3077 2 -2.98781 -4.01389 5.30519
1485 1 -3.5111 -3.0452 5.45804
1302 1 -3.42319 -3.20432 4.20416
569 1 -2.09168 -3.75937 4.30914
3262 2 -2.19158 -3.80901 5.36829
643 1 -1.50113 -3.10949 5.09652
284 1 -0.411578 -4.03013 4.11563
300 1 -1.04516 -4.12345 5.19693
2396 1 -1.19635 -3.85095 4.46044
1417 1 -0.582717 -3.24206 5.60085
103 1 -0.163714 -3.55221 4.7567
1353 1 -6.54522 -1.80362 4.23961
2268 1 -5.98208 -2.38889 4.77512
2949 2 -6.97743 -2.04645 5.22176
664 1 -6.32647 -2.772 4.23012
820 1 -5.56622 -2.01506 5.26062
1361 1 -4.78803 -1.68573 5.25736
3326 2 -4.63971 -2.54792 5.4007
2292 1 -4.71449 -2.68759 4.14208
1699 1 -5.20457 -2.16501 4.42668
1640 1 -3.96357 -2.52801 4.49011
383 1 -4.28926 -1.75833 4.21556
974 1 -3.60691 -1.92717 4.84785
1749 1 -3.09015 -1.88618 5.4429
1246 1 -2.06627 -2.6217 4.41239
561 1 -2.15749 -2.49069 5.20029
1011 1 -1.59181 -1.98379 4.43276
2738 2 -2.8271 -1.87021 4.24023
2858 2 -2.40992 -1.46384 4.79534
1513 1 -2.7583 -2.82589 4.84834
728 1 -1.01578 -1.56203 5.06158
2300 1 -1.4205 -2.24611 5.34179
1614 1 -0.39648 -1.68778 5.56232
2965 2 -0.77354 -2.66016 4.55822
3190 2 -7.15301 -0.0834726 4.54799
2139 1 -5.93485 -1.26481 5.1054
512 1 -6.06135 -0.269096 4.94186
1933 1 -6.43272 -0.664219 4.22058
1871 1 -6.72714 -1.07207 4.90374
2814 2 -5.39685 -0.531724 4.32476
1158 1 -5.41444 -0.0328088 5.29463
3513 2 -4.82611 -0.981561 4.6202
3362 2 -4.41883 -0.19039 4.7722
2079 1 -3.76236 -1.13351 4.74567
1262 1 -3.2027 -0.721977 4.69029
1768 1 -3.20796 -1.04885 5.49255
1397 1 -1.68386 -0.85803 4.18397
2907 2 -1.87861 -0.991774 5.30035
2553 1 -2.81871 -0.726774 4.07825
9 1 -2.3356 -0.14491 4.67964
1930 1 -0.50409 -1.04377 4.59087
1035 1 -1.02792 -0.269697 4.7911
1013 1 -0.564664 -0.7307 5.27192
1031 1 -0.9015 -1.37595 4.07798
783 1 -6.03212 -7.17669 6.18799
3004 2 -6.61682 -6.12793 6.97302
453 1 -5.88454 -6.0933 5.75019
2992 2 -6.89046 -6.52546 6.14618
3062 2 -4.40999 -6.9841 7.07394
2650 1 -5.38882 -6.60288 6.27127
978 1 -4.73467 -6.6251 5.77275
614 1 -5.56341 -7.03726 7.14902
2456 1 -5.04585 -5.91582 6.9809
433 1 -3.92551 -6.04342 6.01798
1690 1 -3.79461 -7.00119 5.72201
1159 1 -3.58695 -6.47958 6.55553
11 1 -3.26477 -5.89661 6.93583
3484 2 -2.3993 -5.91552 6.2817
2321 1 -1.66893 -6.65938 6.33261
2100 1 -2.63131 -7.0372 6.5655
2018 1 -1.91297 -6.76 7.04694
2397 1 -0.685583 -6.27735 6.66298
3574 2 -0.25099 -7.09992 5.77613
1908 1 -1.02883 -6.60934 7.17024
379 1 -1.01279 -6.29104 5.87162
708 1 -5.85254 -5.56253 6.50031
1794 1 -6.209 -4.86641 5.62241
2621 1 -7.00322 -5.13512 6.76166
1890 1 -6.45155 -5.44445 6.07949
602 1 -5.87402 -4.72391 6.77968
3016 2 -6.7214 -4.34462 6.19528
1923 1 -5.68274 -4.49794 5.85743
2729 1 -5.09465 -5.20031 6.89533
3525 2 -4.34365 -5.10215 6.30626
3018 2 -4.85316 -5.23079 5.81914
3084 2 -3.98886 -4.85643 6.95343
1044 1 -3.25498 -5.3845 6.21195
488 1 -2.90353 -4.96165 7.01395
2894 2 -1.79612 -5.49639 6.73693
2003 1 -2.51508 -4.50636 6.35169
600 1 -1.84288 -4.36751 6.45376
2247 1 -2.66065 -5.14117 5.69825
1085 1 -1.96429 -4.49551 7.16462
2145 1 -0.0334453 -5.71123 6.9216
485 1 -0.231183 -5.69766 5.61267
1587 1 -0.753386 -5.62325 6.10948
1042 1 -0.45986 -4.80582 6.17843
1909 1 -1.13407 -4.67093 6.33699
3109 2 -1.21338 -5.34377 7.01135
3243 2 -6.61104 -3.72236 6.55456
3258 2 -6.93739 -3.83993 5.72416
3390 2 -6.0398 -3.40528 7.04903
2607 1 -5.21413 -4.25204 6.73024
1403 1 -5.19511 -3.5582 6.25001
2710 1 -4.28222 -3.75631 6.23586
755 1 -3.83753 -3.16818 6.67355
2674 1 -3.3848 -4.28931 6.15023
1789 1 -3.03413 -3.3755 6.25975
2540 1 -2.86717 -3.89867 6.86671
3490 2 -1.95613 -3.33529 5.91578
2921 2 -1.5131 -3.16006 6.42934
1579 1 -2.15537 -3.40535 7.15397
1437 1 -0.591907 -3.9467 6.28475
1352 1 -1.19577 -4.02282 6.97884
2360 1 -0.255999 -3.66273 7.01161
332 1 -6.88594 -2.84348 6.09127
3395 2 -6.14664 -1.50188 6.57466
757 1 -5.9734 -2.7991 5.85057
3572 2 -6.59917 -1.74389 5.91682
1344 1 -7.07053 -1.55431 7.04952
2680 1 -6.25576 -2.49987 6.92167
1259 1 -4.69982 -2.0053 6.93215
1047 1 -4.77905 -2.83677 6.71897
1684 1 -5.0926 -1.61312 6.39464
351 1 -5.45431 -2.2323 6.20152
3446 2 -3.63357 -1.9677 6.37638
3423 2 -4.11506 -2.11612 5.80798
2241 1 -3.61009 -2.61296 7.15086
2877 2 -3.40774 -1.49241 6.97881
2177 1 -1.98888 -2.31433 7.05793
2374 1 -2.07808 -2.10956 6.01402
63 1 -1.98039 -1.58394 6.75965
1214 1 -2.67174 -1.49577 6.10623
752 1 -2.75887 -2.60387 5.7879
2277 1 -2.64714 -2.75265 6.75673
396 1 -0.977351 -1.72185 6.02889
3097 2 -0.830066 -2.75362 6.69109
1278 1 -0.81016 -2.57422 5.71654
2221 1 -0.141681 -2.10356 6.13666
847 1 -6.45216 -0.175736 6.63307
1149 1 -6.40653 -0.536521 5.79981
636 1 -5.81712 -0.250602 6.29386
2150 1 -7.02684 -0.721231 6.28914
930 1 -7.00275 -0.707047 7.16794
2367 1 -5.30166 -1.09988 5.74344