ITEM: TIMESTEP
0
ITEM: NUMBER OF ATOMS
3594
ITEM: BOX BOUNDS pp pp pp
-7.3144082097422949e+00 7.3144082097422949e+00
-7.3144082097422949e+00 7.3144082097422949e+00
-7.3144082097422949e+00 7.3144082097422949e+00
ITEM: ATOMS id type x y z
749 1 -7.1171 -6.36065 -6.08528
1811 1 -6.41517 -6.04352 -6.37159
1061 1 -6.41297 -6.93513 -5.76021
2152 1 -7.27761 -6.05262 -7.22756
1100 1 -6.23572 -7.23039 -6.39035
573 1 -6.95158 -6.71735 -6.77415
1233 1 -5.82093 -6.60687 -6.96
3092 2 -5.4193 -6.18444 -5.90917
1337 1 -4.64044 -6.39892 -6.62934
1456 1 -4.94833 -7.21181 -5.79202
271 1 -3.69112 -5.90079 -6.77398
413 1 -4.20533 -6.85712 -5.89715
2616 1 -3.07899 -6.40765 -6.80234
3079 2 -3.08215 -7.18088 -5.83066
172 1 -3.53529 -6.22231 -5.75471
554 1 -2.58094 -6.02522 -5.94847
844 1 -2.03109 -6.5691 -6.71406
1767 1 -1.91868 -7.16174 -5.86086
1226 1 -1.06476 -6.01085 -6.82763
834 1 -1.32806 -6.18855 -6.177
802 1 -0.164573 -6.69234 -5.95586
258 1 -0.953454 -6.78089 -6.74226
580 1 -0.0161977 -6.98596 -6.97445
2859 2 -0.00436455 -5.87187 -6.48608
455 1 -6.23014 -5.30082 -6.92779
558 1 -7.30235 -5.44803 -6.75734
223 1 -6.67739 -4.64772 -6.3764
2111 1 -5.92803 -4.91635 -6.06373
3574 2 -6.86762 -4.61903 -7.27899
2465 1 -4.44836 -5.65057 -5.7929
2868 2 -4.57812 -5.04643 -6.75762
2915 2 -5.33291 -5.47654 -6.59552
707 1 -4.63144 -4.77791 -5.88108
2905 2 -3.09904 -5.1151 -6.55781
3131 2 -2.74062 -4.99453 -5.72125
2762 2 -2.29005 -5.3778 -6.65833
1272 1 -1.51611 -5.12551 -6.04459
2950 2 -0.312085 -5.38967 -5.8824
1417 1 -1.067 -5.10139 -6.63825
1619 1 -0.229631 -4.60262 -6.92289
560 1 -0.831226 -4.50214 -6.38154
2188 1 -6.02164 -3.97088 -6.26921
1564 1 -5.97385 -4.37439 -6.88254
307 1 -7.09026 -3.81672 -6.72776
186 1 -6.22162 -3.40563 -7.01156
2986 2 -6.58186 -2.98589 -6.06316
568 1 -5.02726 -3.89519 -6.39785
513 1 -5.14695 -3.13185 -5.91883
1532 1 -5.40374 -3.18527 -6.88405
2254 1 -3.94902 -4.01043 -6.15865
1803 1 -4.16145 -3.21216 -6.37205
2620 1 -3.45753 -4.25776 -6.9998
1493 1 -2.07264 -3.89136 -6.52204
2230 1 -2.7799 -3.65762 -6.22494
1700 1 -2.65367 -3.80531 -7.21428
1791 1 -1.65821 -4.35714 -7.02076
2153 1 -1.50929 -4.22508 -6.01061
48 1 -1.47534 -3.76849 -7.25184
3427 2 -1.46945 -3.20243 -6.07879
589 1 -0.125475 -3.91701 -6.18619
2964 2 -0.802809 -3.12846 -6.56056
3448 2 -6.61155 -2.49864 -6.97077
3284 2 -5.85981 -2.39695 -5.90828
1642 1 -6.52287 -1.68233 -5.88854
619 1 -7.15646 -1.68078 -6.52192
2977 2 -5.67823 -1.88034 -6.50323
3169 2 -5.07873 -2.12703 -6.9715
3028 2 -4.55841 -1.53479 -7.02325
2290 1 -3.94999 -2.24635 -6.54634
300 1 -3.53677 -2.36437 -5.69084
1212 1 -3.26598 -2.63051 -6.74791
851 1 -3.38278 -1.4654 -6.95811
3026 2 -1.88121 -2.71748 -6.38896
3091 2 -2.43789 -2.45577 -6.07739
2374 1 -1.58027 -1.96067 -5.73833
2892 2 -2.35871 -1.56588 -6.46269
395 1 -1.0059 -2.01736 -6.57357
714 1 -0.408873 -2.12388 -7.19063
2017 1 -0.471724 -2.31393 -5.74734
2394 1 -6.39058 -0.751235 -6.53292
91 1 -6.89687 -1.35217 -7.15945
1988 1 -6.87573 -0.55221 -7.31048
1467 1 -5.66246 -1.16125 -6.02603
1924 1 -4.79886 -0.843651 -6.17545
1871 1 -5.38341 -0.858681 -6.77
2247 1 -4.5047 -0.429803 -7.13764
1286 1 -4.22861 -0.425244 -6.18586
921 1 -3.92891 -1.27354 -6.05042
2143 1 -3.60697 -0.619362 -6.65332
1959 1 -3.53097 -0.16988 -5.96865
3222 2 -2.50282 -0.452124 -6.44289
2219 1 -2.02487 -0.795036 -7.29255
1054 1 -1.53246 -1.07601 -6.93452
221 1 -0.464991 -0.420449 -6.58967
320 1 -0.337357 -1.4493 -6.61101
2647 1 -1.07211 -1.37623 -6.10223
1795 1 -7.15787 -6.0861 -4.41409
2145 1 -6.69869 -6.50294 -4.84331
2409 1 -6.98881 -5.89398 -5.47164
3408 2 -6.02577 -6.07401 -4.32421
1777 1 -6.56266 -7.1205 -4.10815
3475 2 -5.80067 -6.36783 -5.26784
2951 2 -5.22227 -6.15701 -4.48906
1531 1 -4.21787 -5.89308 -4.98911
782 1 -3.73288 -5.85238 -4.21795
94 1 -4.34908 -6.65266 -5.12452
1903 1 -4.30812 -6.36741 -4.11698
1244 1 -3.04932 -6.60421 -4.79733
2301 1 -2.2599 -6.66158 -5.02341
898 1 -2.55373 -7.30157 -4.40134
1276 1 -2.66 -6.01622 -4.54799
3452 2 -1.76583 -6.04279 -4.08564
1283 1 -0.797534 -7.1218 -5.50952
1794 1 -0.00537951 -6.61298 -4.83173
47 1 -1.26213 -6.64825 -5.08111
985 1 -0.536759 -7.22207 -4.53559
1816 1 -0.0515171 -6.94292 -4.1474
1552 1 -6.45447 -5.37029 -5.65706
2259 1 -6.63793 -5.43442 -4.78656
292 1 -5.66499 -4.75681 -5.11955
1001 1 -4.82341 -5.23782 -4.53683
1055 1 -5.16837 -5.38335 -5.34637
270 1 -3.86033 -4.9617 -5.33428
2889 2 -3.96102 -4.82693 -4.25241
2605 1 -3.44075 -5.69823 -5.05244
3397 2 -3.17004 -4.57925 -4.24993
2316 1 -1.79698 -5.81691 -5.23669
3075 2 -2.56973 -5.05915 -4.80992
926 1 -1.48924 -4.87955 -4.11787
2946 2 -0.49606 -5.80325 -5.23577
2786 2 -0.734263 -5.6611 -4.50257
770 1 -0.118218 -4.46292 -5.05162
3503 2 -0.939278 -5.03376 -5.21921
3122 2 -7.01795 -4.24154 -5.29582
1842 1 -6.30829 -3.27984 -4.40132
1810 1 -5.72915 -4.00193 -4.54803
3359 2 -4.66242 -3.92298 -5.23874
3296 2 -4.46598 -4.14229 -4.615
399 1 -5.81238 -3.61754 -5.35866
789 1 -3.242 -4.12178 -5.33079
2545 1 -3.36099 -3.22723 -5.6184
2109 1 -3.07799 -3.48413 -4.48159
252 1 -2.40688 -4.04763 -4.63033
273 1 -2.11428 -3.9579 -5.43089
2059 1 -1.58296 -4.22291 -4.71058
451 1 -1.77633 -3.80975 -4.10531
3332 2 -2.39521 -2.9649 -5.38218
564 1 -0.669729 -4.18823 -4.42518
1211 1 -0.773877 -4.00413 -5.45539
1249 1 -0.162765 -3.26449 -5.4932
2534 1 -1.25496 -3.40715 -5.00889
2100 1 -0.894267 -3.13433 -4.35324
1663 1 -7.20106 -2.1999 -5.59565
1206 1 -5.96178 -1.94006 -5.00357
87 1 -6.58064 -2.39402 -5.01311
3205 2 -7.14667 -1.79759 -4.36356
1627 1 -4.82798 -2.13976 -5.59719
1755 1 -4.78739 -2.31375 -4.12885
2315 1 -5.36022 -2.88713 -4.84484
2418 1 -5.59643 -1.68118 -4.12609
548 1 -4.35158 -2.87896 -4.87922
1526 1 -4.12013 -1.78701 -4.40326
1297 1 -3.40496 -2.36976 -4.55607
1833 1 -1.83408 -2.83919 -4.40551
576 1 -2.53149 -2.24989 -4.23609
1290 1 -1.88804 -2.10587 -4.87042
10 1 -2.83808 -1.65025 -5.13753
2520 1 -0.205247 -2.69145 -4.86391
1242 1 -0.966423 -1.95206 -4.15111
1060 1 -1.00525 -2.26113 -5.06752
391 1 -6.73717 -0.289049 -5.67307
2411 1 -6.95464 -0.356858 -4.87145
1357 1 -6.18857 -0.643005 -5.47265
345 1 -5.97846 -0.101704 -4.98494
201 1 -6.38766 -1.3573 -5.03055
2073 1 -6.87186 -0.895536 -4.06476
723 1 -5.29136 -0.473232 -5.5302
2831 2 -5.17921 -0.747015 -4.54037
2875 2 -5.34661 -0.0489807 -4.20213
3573 2 -4.78763 -1.29082 -4.92993
3101 2 -4.16139 -0.805049 -4.85262
2382 1 -3.13798 -1.00142 -5.68648
3533 2 -3.3483 -0.339376 -4.41282
3374 2 -3.20813 -1.13966 -4.07469
2614 1 -1.52324 -0.548916 -5.65125
512 1 -2.19637 -1.22628 -5.47378
2888 2 -2.28763 -1.31954 -4.07168
1442 1 -2.3387 -0.493459 -5.04834
1282 1 -1.62225 -0.381751 -4.06518
2407 1 -1.53244 -0.220746 -4.82011
1986 1 -1.52203 -1.26824 -4.98108
93 1 -0.0595969 -0.088295 -4.76186
431 1 -0.845741 -0.122929 -4.63132
3262 2 -0.598991 -1.04144 -5.19037
3534 2 -0.0605776 -1.43312 -4.61595
2053 1 -7.13251 -6.77291 -2.67284
1567 1 -6.41167 -6.05665 -2.60692
546 1 -6.81443 -6.44364 -3.35097
1656 1 -5.72022 -7.14159 -3.94879
2276 1 -5.81277 -6.76452 -3.10792
2096 1 -5.47054 -5.87185 -2.93972
608 1 -4.58745 -6.19679 -3.13877
835 1 -5.11901 -6.90608 -3.60346
1863 1 -3.94837 -6.66702 -3.13791
1798 1 -3.08214 -6.64905 -3.85048
177 1 -3.00677 -6.00408 -3.8001
416 1 -3.5983 -6.15321 -2.84871
949 1 -3.3137 -7.02616 -2.6002
3181 2 -1.67047 -6.85094 -3.75625
790 1 -1.94263 -6.94374 -2.5867
1437 1 -2.78001 -6.4101 -3.10234
543 1 -2.43161 -7.23061 -3.27339
3459 2 -1.0719 -6.38342 -3.96737
3084 2 -0.350851 -6.9769 -2.96589
1734 1 -1.30604 -6.49544 -2.47153
2783 2 -0.845167 -6.98421 -3.39809
1048 1 -6.83985 -4.51167 -3.95258
2858 2 -5.86 -5.20284 -3.79757
3461 2 -6.68749 -5.36799 -3.47051
1999 1 -6.16434 -4.96529 -2.58412
426 1 -4.389 -4.66746 -2.94579
2456 1 -4.6942 -5.30984 -3.61193
65 1 -5.34405 -5.17043 -2.55459
1820 1 -3.86442 -5.495 -3.36443
1775 1 -2.93979 -5.44933 -3.3004
649 1 -2.14712 -5.84721 -3.08754
442 1 -2.19117 -4.43334 -3.60547
304 1 -1.83774 -5.10563 -3.00785
351 1 -0.227459 -4.87869 -3.81845
1961 1 -1.16312 -5.83602 -2.76089
2723 1 -0.469928 -5.68078 -3.36444
944 1 -0.659591 -5.26978 -2.69956
2119 1 -1.14976 -5.20927 -3.65131
1745 1 -6.90094 -4.23696 -2.9081
2729 1 -6.31668 -3.66366 -3.41769
660 1 -6.76436 -3.04351 -2.82014
1722 1 -4.77445 -4.29808 -3.76762
1723 1 -5.84104 -4.13116 -3.18844
956 1 -5.09875 -4.28886 -2.8259
1716 1 -5.10192 -3.386 -3.96375
373 1 -5.53043 -3.24616 -2.8716
1587 1 -4.66377 -3.65213 -3.16917
2625 1 -3.97178 -3.89508 -3.5917
612 1 -4.26239 -3.00682 -4.02335
1537 1 -3.48681 -4.32419 -2.91213
1829 1 -3.52466 -2.93092 -4.00462
2744 2 -2.96884 -3.44283 -3.26351
99 1 -2.73139 -4.29585 -2.65667
3557 2 -2.33976 -3.30153 -3.20204
3336 2 -0.770576 -4.23911 -3.21918
3015 2 -1.43307 -3.81896 -3.0756
1462 1 -0.297952 -3.40785 -3.62955
3415 2 -6.38023 -2.39121 -3.84337
2873 2 -7.06332 -2.03825 -3.61724
2438 1 -6.74235 -1.78853 -2.66264
434 1 -5.76072 -2.03049 -2.75134
3273 2 -5.69454 -2.62482 -3.60549
2161 1 -4.50428 -2.63906 -2.86936
523 1 -4.99943 -1.96098 -3.22076
729 1 -3.75234 -2.12434 -3.51875
2399 1 -4.34404 -1.47585 -2.68958
3194 2 -3.07064 -2.90998 -2.80993
319 1 -3.64762 -2.1744 -2.52014
2288 1 -2.62356 -2.01938 -3.36891
2489 1 -1.68741 -2.4947 -3.20343
3032 2 -1.56834 -1.48347 -3.32829
992 1 -0.7679 -2.02719 -3.25815
2392 1 -0.857642 -2.68187 -2.48766
1916 1 -0.814764 -2.8859 -3.34352
1570 1 -6.01549 -1.0998 -3.91889
2149 1 -7.03605 -0.814588 -3.01819
1139 1 -6.20979 -1.40243 -3.1775
1120 1 -6.30464 -0.501166 -2.68376
1081 1 -6.19674 -0.339302 -3.46547
1257 1 -5.49421 -0.864018 -3.1173
889 1 -5.14078 -1.29606 -3.51245
2140 1 -4.34145 -0.574634 -3.80242
676 1 -4.30309 -1.39999 -3.6932
1799 1 -3.72718 -0.0638088 -3.52154
2077 1 -4.38091 -0.641396 -2.99303
45 1 -3.03975 -1.37438 -2.56038
2525 1 -3.57439 -1.10534 -3.08546
410 1 -3.02515 -0.383847 -3.12592
742 1 -2.43182 -0.925853 -2.69615
679 1 -2.17392 -0.251475 -3.55755
1190 1 -1.71936 -0.24507 -2.68358
37 1 -0.935588 -0.975537 -3.99798
3476 2 -1.44557 -1.41199 -2.46601
278 1 -0.354532 -1.18523 -3.24622
436 1 -0.260853 -0.644736 -2.5764
2135 1 -0.997195 -0.461835 -3.18235
1712 1 -6.09102 -6.86517 -2.23129
1344 1 -6.80371 -7.30359 -2.15819
2800 2 -7.18114 -5.96803 -1.44089
549 1 -6.37611 -6.94308 -1.0713
82 1 -5.57884 -6.14116 -1.96659
2829 2 -4.87193 -6.5765 -2.17318
2126 1 -5.57674 -6.60284 -1.07479
2850 2 -4.42132 -6.61006 -1.10723
237 1 -3.79299 -7.30536 -2.18075
3050 2 -4.1583 -6.37033 -1.77849
2252 1 -3.18654 -6.17992 -0.990822
1401 1 -3.33553 -7.00468 -1.11652
1805 1 -3.04682 -6.75309 -1.81543
2776 2 -2.3432 -6.11775 -1.97187
3243 2 -2.00502 -7.14484 -1.22845
3376 2 -2.00055 -6.15004 -1.19832
2818 2 -1.3856 -6.71774 -1.2667
2454 1 -0.518317 -7.28134 -1.71725
1152 1 -0.6277 -6.13933 -1.17546
626 1 -0.205945 -6.55783 -1.81757
457 1 -6.65353 -5.10134 -1.83271
453 1 -5.91845 -5.79271 -1.30694
2298 1 -7.11921 -4.39245 -1.11083
999 1 -6.52888 -5.26821 -0.895662
2662 1 -4.60209 -5.38591 -2.36723
306 1 -5.26007 -5.58789 -1.75444
2184 1 -5.08116 -5.68047 -1.04399
3116 2 -5.686 -4.49833 -1.47656
1199 1 -4.54552 -4.87556 -1.77033
3535 2 -3.68931 -5.75262 -1.93853
1012 1 -3.96312 -4.57529 -2.36706
419 1 -4.30654 -5.15872 -0.914772
2337 1 -3.38347 -4.8815 -1.28266
3279 2 -2.7921 -5.40178 -2.1959
1319 1 -1.89902 -4.89324 -1.93071
2635 1 -2.45752 -5.22781 -0.992414
1021 1 -1.62703 -4.92283 -1.11743
1119 1 -1.15439 -5.76211 -1.84618
3383 2 -0.957542 -4.6047 -2.11784
1324 1 -1.11752 -5.53606 -0.814528
1488 1 -0.211816 -5.46929 -1.71396
2944 2 -0.404264 -4.68821 -1.3553
3337 2 -6.40029 -3.91668 -2.08
850 1 -6.34937 -3.97786 -0.858519
916 1 -5.95302 -3.0772 -0.885097
3434 2 -6.7906 -3.36674 -1.76178
3563 2 -5.3707 -3.86272 -2.08827
2746 2 -4.40412 -3.8008 -1.82855
3019 2 -5.31329 -4.34089 -0.832336
2022 1 -5.1331 -2.96646 -1.37425
2559 1 -4.57277 -3.34259 -0.910958
2691 1 -3.89084 -4.12602 -1.14732
2817 2 -3.70619 -3.3115 -2.34271
1978 1 -2.99478 -4.24314 -1.88622
2164 1 -2.96151 -3.56443 -1.4906
873 1 -2.06112 -3.94059 -2.09026
1866 1 -1.96294 -4.16915 -1.23961
2467 1 -1.74878 -3.12632 -2.14713
3188 2 -1.60363 -3.03415 -1.01978
1313 1 -0.708957 -3.66554 -0.9574
356 1 -0.204299 -3.55777 -2.37445
948 1 -1.04951 -3.58021 -1.71122
1142 1 -6.02132 -2.70794 -2.41748
2439 1 -6.84491 -2.34319 -2.23679
1317 1 -7.00071 -2.54111 -1.46422
2679 1 -5.86782 -2.68445 -1.62316
1752 1 -6.97222 -2.03198 -0.829056
2381 1 -7.26273 -1.53221 -1.71693
1480 1 -4.83722 -2.72901 -2.27532
1768 1 -5.36338 -2.04768 -1.21978
1196 1 -4.61067 -2.26011 -1.58289
1398 1 -4.18656 -1.6135 -1.83475
2617 1 -3.88702 -2.61872 -1.64015
2139 1 -3.17362 -2.78845 -1.5595
561 1 -3.25381 -1.79482 -1.68124
2267 1 -2.08434 -2.28312 -2.41469
1325 1 -2.33613 -2.7415 -1.85732
421 1 -2.51212 -1.53695 -1.85804
1102 1 -2.02829 -1.9482 -1.32699
880 1 -2.67754 -2.14198 -0.959713
667 1 -0.0107007 -2.08713 -2.34977
2701 1 -0.0362053 -2.80426 -1.50749
3036 2 -0.941888 -2.29562 -1.33591
3149 2 -6.1069 -1.30742 -1.90165
2341 1 -6.90108 -0.742367 -2.1244
116 1 -6.66295 -0.00379547 -2.14387
3177 2 -6.00627 -0.505396 -1.36854
2567 1 -7.19356 -0.834665 -1.4089
1969 1 -7.22208 -0.00636308 -1.3336
3211 2 -5.27976 -1.15914 -2.23989
3206 2 -5.03444 -0.315115 -1.93755
21 1 -4.97817 -1.45983 -0.975643
537 1 -4.08337 -0.00198791 -2.3111
846 1 -3.73321 -0.96495 -1.64987
2535 1 -4.24067 -1.21471 -0.93889
1175 1 -3.4466 -0.61827 -2.3607
3053 2 -3.11677 -0.863718 -0.991367
2128 1 -1.91798 -0.899197 -1.89381
3241 2 -2.86827 -0.415968 -1.68965
1453 1 -1.76083 -0.5608 -1.03492
2788 2 -0.902741 -1.41466 -1.85712
1536 1 -0.968614 -0.0973604 -2.33785
1590 1 -1.29688 -0.143599 -1.4656
1585 1 -0.183527 -0.508438 -1.78376
542 1 -0.0982325 -1.39419 -1.18767
2680 1 -0.553645 -0.0268579 -1.19653
578 1 -6.10771 -6.10053 -0.459225
140 1 -6.19537 -6.55647 0.559691
960 1 -6.75311 -6.87055 0.241892
613 1 -5.38164 -5.98641 -0.151555
918 1 -4.60223 -7.19152 0.68984
839 1 -4.92884 -6.39271 0.286776
1790 1 -3.90076 -6.41186 0.0365863
2302 1 -3.02337 -6.5767 -0.207523
677 1 -3.59838 -7.02707 -0.440504
1495 1 -1.90728 -6.46782 -0.0433349
1356 1 -2.56353 -6.331 0.747001
488 1 -2.50976 -7.11216 0.175444
1669 1 -0.582373 -6.80097 -0.721539
2221 1 -1.18662 -6.87964 -0.00381962
3014 2 -0.119155 -6.04382 -0.258315
2860 2 -0.873677 -6.30756 0.599958
3477 2 -0.20116 -6.57768 0.234326
1181 1 -6.84763 -5.78535 -0.112565
594 1 -6.97859 -4.5763 -0.0462816
2761 2 -5.98068 -5.1885 0.21684
1503 1 -4.475 -5.83475 -0.539289
2755 2 -5.5646 -4.98845 -0.507255
805 1 -5.04346 -5.58129 0.420012
600 1 -4.5204 -5.03091 0.221737
260 1 -5.22321 -4.62926 0.485655
2239 1 -4.37455 -4.55776 -0.488795
1938 1 -4.15668 -5.69303 0.193382
466 1 -3.60148 -5.71335 -0.418943
3378 2 -3.55937 -4.78378 0.00503721
1728 1 -1.95991 -4.51338 -0.0154018
2488 1 -2.91191 -5.76245 0.378038
2122 1 -2.16754 -5.54399 0.0711253
1013 1 -1.24579 -5.59711 -0.0196253
2538 1 -1.22764 -4.45898 -0.690585
3358 2 -0.00181589 -4.98639 -0.595135
296 1 -0.726642 -4.98423 0.156758
1331 1 -6.10343 -4.09418 0.131064
1252 1 -7.2243 -4.38015 0.619849
2775 2 -7.08882 -3.25165 -0.628656
3071 2 -6.72633 -3.28685 0.0400077
1389 1 -4.4347 -4.09439 0.183149
1634 1 -5.39901 -3.89445 0.389881
2115 1 -5.47214 -3.50887 -0.33069
2340 1 -4.90912 -3.38284 0.171109
56 1 -4.25105 -3.64524 -0.386417
2345 1 -4.1549 -3.31157 0.686579
1620 1 -3.69547 -3.44521 0.217784
3514 2 -2.98589 -4.22892 -0.321204
886 1 -3.60421 -3.28746 -0.599356
1082 1 -2.35853 -4.22722 0.737344
3150 2 -2.24526 -3.29069 -0.669556
1613 1 -2.50773 -3.34983 0.358222
1145 1 -1.82046 -3.01878 0.341859
2423 1 -0.111959 -3.98877 -0.423684
759 1 -1.04471 -3.6818 -0.028856
1902 1 -0.154019 -3.77985 0.64018
440 1 -0.311746 -3.03257 -0.591737
1482 1 -6.29353 -2.0022 -0.727205
3369 2 -5.95824 -2.64747 -0.0785206
3379 2 -7.09101 -2.62882 0.118461
2782 2 -5.1958 -2.38667 -0.246335
294 1 -5.68289 -1.95482 0.759042
1785 1 -5.08169 -2.61311 0.740479
3138 2 -3.72179 -2.04603 -0.801599
3455 2 -4.36203 -2.25527 -0.350509
35 1 -4.25413 -2.45449 0.781051
1176 1 -4.32551 -1.65854 0.742744
3204 2 -3.37251 -1.95776 0.220373
2766 2 -2.97956 -1.58404 0.771219
1443 1 -1.89997 -2.1727 -0.402884
476 1 -2.90978 -2.69131 -0.23479
415 1 -1.63435 -2.11103 0.74634
974 1 -2.15809 -1.58899 0.0416156
1843 1 -1.09544 -2.36027 -0.103275
2031 1 -0.462667 -1.66366 -0.359779
1797 1 -0.258913 -2.63235 0.225707
931 1 -6.40914 -1.18997 -0.725466
1030 1 -7.23876 -0.823648 -0.372586
877 1 -6.01615 -1.37364 0.201659
610 1 -6.852 -0.462223 0.493834
2361 1 -7.03536 -1.25239 0.192016
1701 1 -6.02893 -0.254571 0.264663
193 1 -5.55094 -1.29154 -0.430615
817 1 -4.77192 -0.665476 -0.781242
1192 1 -5.43407 -0.47051 -0.0708251
528 1 -5.09609 -1.37677 0.387741
2124 1 -3.67088 -0.0752361 -0.74293
607 1 -4.36511 -0.851187 -0.116364
3151 2 -3.37898 -1.22429 -0.23394
535 1 -3.4921 -0.246548 0.41018
1435 1 -2.28138 -1.22231 -0.723379
2150 1 -2.68962 -0.0512478 -0.280611
955 1 -2.42616 -0.767999 0.296809
1234 1 -1.18558 -1.35957 -0.786466
1033 1 -0.478048 -0.700638 -0.753386
3102 2 -1.29968 -0.463535 -0.0664386
534 1 -0.00138805 -0.536767 -0.131886
3435 2 -1.0507 -1.15129 0.34783
230 1 -7.09723 -5.96009 0.851638
2476 1 -6.39315 -6.6351 1.3691
937 1 -6.93655 -7.26533 1.21293
1128 1 -6.48126 -6.48982 2.09994
1016 1 -7.00229 -7.2545 2.18699
3088 2 -5.53809 -5.9273 1.77821
1473 1 -4.60718 -7.01822 1.62148
1837 1 -4.80592 -6.39093 1.16987
973 1 -5.39071 -6.75846 0.99382
743 1 -5.55189 -6.87398 1.89106
3176 2 -3.67112 -6.87911 1.71439
3272 2 -3.54092 -6.61695 0.880586
46 1 -2.39769 -6.89654 1.7842
3343 2 -1.66845 -6.05779 1.1219
1158 1 -2.63487 -6.08989 1.94796
2023 1 -2.8403 -6.9151 2.38474
577 1 -1.75299 -6.39252 2.42518
776 1 -0.316199 -6.57397 1.77813
3258 2 -1.34484 -6.763 1.25618
1086 1 -0.80045 -7.11361 2.22116
1939 1 -6.82613 -4.65889 1.39734
1387 1 -6.67693 -5.23002 0.887109
124 1 -6.70446 -5.74259 1.83701
53 1 -6.77855 -4.9534 2.2455
3051 2 -5.85017 -5.46368 1.00288
1908 1 -5.42234 -4.44442 1.28794
1063 1 -4.70267 -5.02021 0.973963
3142 2 -5.7817 -5.24635 2.00824
264 1 -4.63045 -5.31196 1.85984
2677 1 -4.95829 -4.63116 2.28177
1530 1 -4.31969 -5.80478 1.24422
2768 2 -4.12509 -4.41261 1.28487
3304 2 -3.69885 -4.73208 1.71023
2235 1 -4.1324 -5.82754 2.14669
1265 1 -3.06284 -5.53421 1.34238
1582 1 -3.65526 -5.55197 0.826187
3027 2 -3.4811 -4.58648 0.817853
2204 1 -2.54396 -5.04085 0.87317
76 1 -2.58104 -4.60176 1.68697
2890 2 -1.74567 -5.23161 1.11324
2232 1 -2.21688 -5.37331 1.99233
1739 1 -0.636551 -5.74854 1.76302
504 1 -0.399496 -5.43824 0.994828
3006 2 -1.29647 -4.5328 0.958082
1163 1 -0.658373 -4.86361 1.60871
900 1 -1.21196 -4.62117 2.23346
1046 1 -1.44415 -5.42576 2.24283
114 1 -6.19468 -4.13203 1.24324
3501 2 -7.27408 -3.88381 2.32438
1002 1 -5.89337 -3.17633 0.936894
102 1 -7.19033 -3.4546 1.1894
2007 1 -6.04226 -3.51457 1.8473
3592 2 -4.67098 -3.78503 1.27776
655 1 -5.78533 -4.24963 2.24833
1925 1 -4.50627 -4.04791 2.40434
3058 2 -5.15317 -3.19489 1.84073
2471 1 -3.87269 -3.27137 1.6306
348 1 -3.82027 -3.3045 2.35332
705 1 -2.93346 -3.86802 1.30194
1180 1 -3.43699 -3.88514 1.83732
317 1 -3.26909 -3.24296 0.862486
3185 2 -1.6608 -3.82395 1.34315
511 1 -1.60761 -4.01355 2.36308
3334 2 -2.15292 -3.24308 1.66926
1632 1 -0.347985 -3.71448 1.35167
352 1 -0.813904 -3.96458 1.9941
798 1 -1.10853 -3.01564 0.913999
1380 1 -0.406966 -2.99164 1.65863
2193 1 -1.04798 -3.28309 2.42802
1136 1 -0.142442 -3.42604 2.37409
2717 1 -6.59261 -2.75084 1.1681
3130 2 -6.77146 -1.79762 1.34043
2092 1 -6.75076 -2.20424 2.30831
394 1 -6.37654 -2.71993 2.19157
690 1 -6.13632 -1.72673 2.31118
1831 1 -5.80258 -2.40361 1.45831
1600 1 -4.81881 -1.79632 1.54265
1962 1 -5.24185 -2.14458 2.19289
463 1 -3.70864 -1.71406 1.50505
2543 1 -4.23676 -2.22233 2.01014
942 1 -3.57995 -2.47234 1.52107
2642 1 -3.10427 -1.71101 2.14827
2839 2 -2.66589 -2.80636 1.50459
3192 2 -2.57535 -2.26528 1.01151
2552 1 -1.52643 -2.63938 2.07606
389 1 -2.00484 -1.82466 1.95602
1639 1 -1.16654 -2.41546 1.35579
1951 1 -0.00282298 -2.61238 1.09997
3220 2 -0.859798 -1.46943 1.56785
3191 2 -0.465555 -1.59021 0.853978
1140 1 -0.627507 -2.34282 2.13816
3440 2 -6.37291 -0.93738 1.39202
703 1 -6.94185 -0.504069 2.03285
1966 1 -6.00052 -0.368912 2.12224
2920 2 -5.53453 -1.03919 1.24432
3305 2 -4.7711 -0.589194 1.73528
2952 2 -4.87983 -0.501328 0.989989
303 1 -5.34462 -1.12251 2.43293
2687 1 -3.67674 -0.98534 1.02879
3321 2 -4.31561 -1.14369 2.31948
3253 2 -4.01046 -0.110333 2.41374
2355 1 -3.52066 -0.0967004 1.38726
2079 1 -3.05187 -0.554851 2.11171
2689 1 -1.84131 -0.664935 0.881629
1557 1 -2.54582 -0.252134 1.0626
746 1 -2.34662 -0.958176 1.66329
309 1 -1.82319 -1.27313 1.34735
1912 1 -2.3497 -0.173148 2.24098
1077 1 -1.55873 -0.757963 2.04011
1929 1 -1.06384 -0.42044 1.60549
293 1 -0.786589 -0.268664 0.90511
2117 1 -6.52609 -6.50423 3.42053
2167 1 -6.0077 -6.98028 2.82451
2035 1 -6.32865 -7.27085 3.75984
2155 1 -4.74821 -6.41851 2.47739
3153 2 -5.28531 -6.10865 3.2725
1141 1 -5.04479 -7.30985 2.54174
2137 1 -4.75707 -7.07935 3.70561
1208 1 -4.09621 -6.78335 3.16136
1518 1 -4.12813 -6.42508 3.89883
383 1 -3.24247 -7.08249 3.42296
1379 1 -3.22679 -6.37535 2.94133
2733 2 -2.00996 -6.32056 3.5494
3510 2 -1.95102 -7.10498 3.38277
3214 2 -2.6349 -6.3546 4.05349
680 1 -0.278726 -6.84253 2.94143
229 1 -0.867934 -6.1169 2.79376
876 1 -0.983037 -6.402 3.78638
935 1 -0.0649178 -6.12104 3.6594
1815 1 -7.09153 -5.59902 3.3214
912 1 -6.5298 -5.79556 2.83028
658 1 -6.27994 -4.86061 2.91784
811 1 -6.1754 -5.25423 3.95293
3566 2 -7.25796 -4.55095 3.77117
3464 2 -5.54184 -5.84755 2.72285
1612 1 -5.55759 -5.00995 3.30523
169 1 -4.671 -5.24979 2.75287
418 1 -4.79103 -5.00739 3.52598
1071 1 -4.12247 -5.63472 3.26808
2929 2 -3.67482 -4.51637 2.91758
1065 1 -3.92399 -5.56123 3.89767
2160 1 -3.17017 -5.5444 3.63418
3268 2 -3.37587 -5.03224 2.4902
3291 2 -3.61841 -4.53645 3.64836
2025 1 -2.43298 -5.82348 2.81655
1917 1 -2.54757 -4.97881 3.32962
2097 1 -2.3434 -4.77262 2.51341
2738 2 -1.46434 -5.13549 3.19794
3086 2 -1.3905 -4.41706 3.42522
3404 2 -0.514801 -4.78701 3.04929
3210 2 -0.0384327 -5.37697 2.55365
2570 1 -0.379811 -5.4283 3.89144
724 1 -5.97067 -4.18566 3.25075
3062 2 -7.01579 -3.99132 3.08483
1039 1 -6.15186 -3.28524 2.68656
1977 1 -6.7501 -3.29389 3.92989
483 1 -4.97611 -4.17373 3.13752
3463 2 -5.15815 -3.10953 2.62158
1640 1 -5.63911 -3.63535 3.83883
2123 1 -4.31275 -3.66634 3.31961
681 1 -3.67761 -3.02826 3.27063
1422 1 -3.01105 -3.52195 3.06672
2482 1 -3.03053 -3.61016 3.99722
1862 1 -2.56143 -4.1896 3.36201
2580 1 -2.64435 -3.90495 2.44165
3450 2 -1.77693 -3.66775 3.88521
2309 1 -2.50213 -2.98035 3.60308
1019 1 -1.99365 -3.43669 2.86058
3393 2 -1.0048 -3.66272 3.63151
3282 2 -0.530562 -4.06803 3.2192
3223 2 -6.27953 -2.35984 3.38273
3049 2 -4.96583 -2.66759 3.24819
1731 1 -5.66153 -1.55465 3.30957
1689 1 -4.61608 -1.6753 3.05565
185 1 -4.1091 -2.48647 2.6915
3094 2 -4.07044 -2.08859 3.7413
1225 1 -3.59894 -1.74484 2.77345
222 1 -2.82525 -2.05338 3.49535
3238 2 -2.72547 -2.5545 2.47169
1894 1 -1.50991 -2.16733 2.71432
637 1 -1.79837 -1.74665 3.65649
1623 1 -0.477663 -2.86588 2.95492
191 1 -1.42022 -2.77248 3.21884
2228 1 -0.867173 -1.88236 3.29506
795 1 -0.162927 -2.64898 3.70744
1553 1 -0.809617 -2.21625 3.9246
176 1 -6.84517 -0.15712 3.46503
81 1 -6.14946 -0.648908 3.08174
175 1 -6.75025 -1.10348 2.56975
3588 2 -6.58263 -1.44878 3.79063
2491 1 -5.16853 -0.872363 3.51932
2526 1 -5.22736 -0.461857 2.83569
628 1 -4.41421 -0.323332 3.3954
1991 1 -4.16242 -1.00775 3.79347
437 1 -3.45478 -0.795288 3.05333
700 1 -3.19901 -1.40474 3.80814
2885 2 -2.55125 -0.774254 3.25861
3388 2 -1.94136 -1.1324 2.87801
869 1 -1.19452 -0.231343 3.3468
3589 2 -0.70864 -1.28739 2.64627
1645 1 -0.291384 -0.34047 3.33945
1922 1 -0.798354 -0.977359 3.81129
3504 2 -6.42692 -7.03298 5.42733
2720 1 -7.23403 -6.32893 4.2223
968 1 -6.957 -6.31827 4.99336
527 1 -6.25353 -5.9613 4.36278
334 1 -5.52061 -7.13219 4.23825
940 1 -5.2092 -6.61874 5.10733
302 1 -4.43141 -6.61254 4.74572
3425 2 -5.28159 -6.12491 4.12673
2515 1 -3.80965 -6.4461 5.50034
2837 2 -3.31471 -6.50583 4.67277
2249 1 -2.25472 -6.6213 5.08231
3063 2 -2.79923 -7.2922 4.94322
1885 1 -1.76906 -7.25195 4.66223
2141 1 -1.06594 -6.9833 4.29586
2702 1 -1.05729 -6.98387 5.21507
384 1 -1.34312 -6.24972 5.00718
1245 1 -6.06099 -4.40569 4.18378
61 1 -6.45163 -5.44628 4.90807
902 1 -7.03634 -5.59167 5.60913
2823 2 -5.38161 -5.56297 5.00552
13 1 -4.56465 -5.28972 4.34714
2282 1 -5.27239 -4.49944 4.3985
2002 1 -4.0013 -5.45114 5.09886
1727 1 -4.35328 -4.56159 5.58204
1321 1 -3.14884 -5.43233 4.77444
3246 2 -3.49823 -4.48371 4.43232
1586 1 -2.09686 -5.6016 4.48382
2575 1 -2.4796 -4.83298 4.13862
522 1 -2.61373 -5.37865 5.37749
1171 1 -1.64137 -4.91951 4.66718
86 1 -1.96997 -5.81457 5.48912
3289 2 -0.464707 -5.74048 4.9466
1143 1 -1.13405 -5.65622 4.08802
2947 2 -0.92768 -4.86694 5.32698
3351 2 -0.218543 -5.15321 5.29121
1371 1 -0.892163 -4.7462 4.32329
1037 1 -6.85288 -4.31349 4.86198
1375 1 -6.31375 -3.72495 4.40113
1508 1 -7.09876 -3.65483 5.42227
3348 2 -5.95879 -3.39621 5.36865
3539 2 -5.83206 -4.19184 5.26704
2110 1 -4.75836 -4.10661 4.06513
2583 1 -4.82688 -4.37041 4.96055
1756 1 -5.20686 -3.53866 4.73584
2435 1 -4.69887 -2.98972 5.57826
2561 1 -3.95698 -2.98552 5.15325
1766 1 -3.8493 -3.37031 4.2044
2987 2 -3.6208 -4.10239 5.00864
1654 1 -3.12445 -3.32745 4.91037
2052 1 -2.33803 -4.36578 4.70849
1629 1 -1.88263 -3.75647 5.45244
2643 1 -2.73409 -4.29805 5.61106
3035 2 -2.03429 -3.27834 4.60985
2271 1 -0.780151 -4.06913 4.50207
1888 1 -1.10871 -3.77263 5.16288
1230 1 -0.101983 -3.97994 5.65174
1036 1 -0.346344 -3.42226 4.85942
2486 1 -0.847492 -3.07185 4.2861
1765 1 -6.74027 -2.73155 4.5768
785 1 -5.95974 -2.08867 4.52734
387 1 -7.19129 -1.92333 4.9315
20 1 -7.18527 -2.59725 5.38388
3120 2 -6.01026 -2.70162 5.5788
1545 1 -5.79914 -2.82365 4.16319
2284 1 -4.65633 -2.90945 4.2797
1428 1 -5.15798 -2.55294 4.95267
969 1 -5.16302 -1.68658 4.1426
725 1 -5.09623 -1.70432 4.95644
2871 2 -3.97845 -2.02619 4.61982
468 1 -3.08477 -2.61105 4.1721
3274 2 -3.60699 -2.0097 5.19047
1092 1 -2.66997 -2.3223 5.24828
923 1 -2.57337 -2.07234 4.29933
1738 1 -1.67941 -2.50114 4.15178
3097 2 -1.56548 -2.71333 5.10318
2507 1 -2.13314 -1.90981 5.51956
3310 2 -0.796939 -2.48011 5.19888
2745 2 -0.1867 -2.10483 4.99308
328 1 -1.44678 -1.68616 4.62268
2574 1 -6.71777 -0.405298 5.02871
2008 1 -5.9626 -0.869764 4.30125
933 1 -7.11627 -1.0148 4.76477
1411 1 -5.7513 -0.472057 5.34141
2050 1 -5.59493 -1.14445 5.16999
3119 2 -5.04077 -0.21667 4.259
1581 1 -4.40311 -1.04255 4.89553
362 1 -3.05058 -0.414188 4.41397
3224 2 -3.4249 -1.41946 4.73695
657 1 -3.6555 -0.192536 4.46094
1984 1 -3.5427 -0.734604 5.55852
181 1 -2.56798 -1.06095 4.32358
1826 1 -2.17093 -1.26124 5.08367
2686 1 -1.51989 -0.790019 4.17702
3292 2 -1.67593 -0.288475 5.61989
105 1 -0.810735 -0.00713276 4.91341
1309 1 -0.612327 -0.164023 4.13546
2090 1 -1.2078 -1.21655 5.28248
1985 1 -0.281569 -1.44326 4.18726
874 1 -0.660637 -0.768523 4.89084
2400 1 -0.437037 -0.823953 5.66043
460 1 -7.18903 -5.96597 6.45782
2757 2 -7.30874 -7.02358 6.78535
490 1 -6.43993 -6.10458 7.11216
2840 2 -6.5076 -6.86842 6.45981
3085 2 -5.84284 -6.62098 6.14681
3261 2 -5.77903 -5.87833 5.691
1047 1 -5.21697 -6.38027 7.14408
1875 1 -4.98292 -7.16242 6.9262
2649 1 -4.76423 -6.67209 6.02554
1188 1 -4.51156 -5.94898 5.74526
2416 1 -3.76569 -7.21737 5.90973
3470 2 -3.85156 -6.68378 6.93961
3511 2 -3.02214 -7.10357 6.82224
984 1 -3.54409 -5.9053 6.09164
1189 1 -2.27081 -6.61599 7.16818
1184 1 -2.33336 -6.04056 6.37468
1057 1 -2.89436 -5.88213 7.0231
2693 1 -2.92395 -6.56138 6.1615
2983 2 -2.21952 -7.30416 6.26924
1864 1 -1.58638 -6.5708 5.87503
1166 1 -1.63152 -6.39741 6.98348
3482 2 -0.300215 -6.46857 6.74056
136 1 -0.270926 -6.86998 5.72319
281 1 -0.901568 -6.03172 6.04319
3400 2 -0.970088 -7.31239 6.72161
2102 1 -6.19032 -5.30697 6.58363
1369 1 -6.31676 -4.67909 5.85931
2484 1 -5.68447 -5.595 7.10416
2039 1 -4.95762 -5.75508 6.59781
2751 2 -5.07517 -4.53918 7.19802
1856 1 -5.36699 -4.7596 6.21174
1529 1 -4.55606 -5.20637 5.87423
1602 1 -4.2565 -5.32011 6.81896
2326 1 -3.51176 -5.08383 6.94564
2320 1 -3.4914 -5.03399 5.74464
3523 2 -2.05623 -5.39919 7.30771
941 1 -2.77521 -5.18913 6.26626
3048 2 -1.98457 -4.9056 6.58263
2444 1 -2.8146 -4.55602 7.31192
3371 2 -1.59428 -4.81667 5.80757
1408 1 -1.13487 -5.61847 6.55578
1666 1 -1.12607 -4.48873 7.04243
966 1 -0.338893 -5.01326 6.71846
1041 1 -0.873196 -5.35874 7.31061
2296 1 -7.22697 -3.95825 6.40496
622 1 -6.51343 -3.68411 6.54544
41 1 -7.18922 -3.48875 7.26908
227 1 -7.30934 -3.23359 6.06111
2697 1 -5.83677 -4.16698 6.63213
2722 1 -4.81602 -3.80005 5.87551
3370 2 -4.46767 -4.15577 6.93012
2030 1 -4.75197 -3.11593 7.31322
187 1 -5.3111 -3.25344 6.33286
3141 2 -3.7159 -3.8177 6.37637
2897 2 -2.9779 -3.2254 6.78154
3183 2 -3.60633 -3.3842 7.14995
1118 1 -2.05143 -3.89264 6.39187
1250 1 -2.68896 -3.02041 5.88796
1397 1 -0.710521 -4.26897 6.37049
1326 1 -1.27679 -3.76115 6.25027
2169 1 -0.548552 -3.26403 5.99616
493 1 -1.25985 -3.23713 6.98283
3193 2 -0.400937 -3.46776 7.22843
2508 1 -5.88257 -2.79809 6.79406
906 1 -6.75191 -2.79905 6.62466
2460 1 -6.44067 -1.90528 6.88706
174 1 -7.24515 -2.1729 6.30832
3054 2 -6.19701 -2.00593 5.69368
1004 1 -4.64392 -2.5366 6.48017
2487 1 -4.8747 -2.2461 5.75691
2373 1 -5.69035 -1.55927 6.74334
1304 1 -5.18465 -1.76461 6.31084
1976 1 -3.97505 -2.37198 6.95369
1263 1 -3.76799 -2.87315 5.94576
2813 2 -4.10046 -1.77427 5.72311
2063 1 -3.1863 -2.35901 6.30859
1741 1 -3.28534 -1.79883 6.74061
1457 1 -2.66832 -2.29364 7.13385
360 1 -2.04132 -2.54773 6.47499
1544 1 -2.00496 -2.87441 7.29037
2190 1 -2.92411 -1.47038 5.73753
1123 1 -2.51826 -1.53236 6.36065
1345 1 -2.03364 -1.76026 7.22056
2529 1 -1.57874 -1.80961 6.47997
2060 1 -1.41466 -2.87915 6.20525
42 1 -0.544847 -2.36363 6.35462
1223 1 -1.18117 -2.31271 7.18333
620 1 -1.06417 -1.64784 6.00577
958 1 -0.283854 -1.55666 6.00532
3303 2 -6.28199 -0.108391 6.50284
3197 2 -6.7199 -0.557323 5.9278
2906 2 -6.58963 -1.37835 5.72389
1771 1 -6.15229 -0.915341 7.14543
32 1 -5.18267 -0.806966 6.95566
54 1 -4.62211 -0.902981 5.80567