ITEM: TIMESTEP
0
ITEM: NUMBER OF ATOMS
3594
ITEM: BOX BOUNDS pp pp pp
-7.0234421028000478e+00 7.0234421028000478e+00
-7.0234421028000478e+00 7.0234421028000478e+00
-7.0234421028000478e+00 7.0234421028000478e+00
ITEM: ATOMS id type x y z
2357 1 -6.4742 -6.48976 -6.07081
2711 1 -6.48665 -6.85224 -6.80354
1115 1 -4.94525 -6.17406 -6.53312
1810 1 -5.63901 -6.59653 -6.83006
732 1 -4.84551 -6.00286 -5.72397
1627 1 -5.66207 -6.27972 -5.98663
2767 2 -3.91621 -6.48825 -6.86233
356 1 -4.18837 -6.64003 -5.64618
3258 2 -3.48534 -6.09343 -6.33539
2169 1 -2.1013 -6.11804 -5.99722
519 1 -2.47459 -6.57796 -6.70772
3206 2 -3.07714 -5.70926 -5.91249
2954 2 -0.838168 -6.61994 -5.95179
2835 2 -1.43293 -6.85061 -6.45264
2189 1 -0.244575 -6.76008 -6.83323
2299 1 -0.212029 -5.88415 -6.72441
2625 1 0.624377 -6.90053 -7.01288
1257 1 0.102413 -6.02594 -5.97279
1733 1 0.438218 -6.80907 -6.14703
2791 2 0.850205 -5.68743 -6.96054
315 1 1.15442 -6.4823 -6.22803
671 1 2.02921 -6.73828 -6.41032
3386 2 2.97468 -6.44328 -6.77337
2352 1 1.96742 -6.19424 -5.68902
2726 1 2.33766 -5.71847 -6.43774
2979 2 3.89874 -5.66905 -5.75959
1297 1 4.32564 -6.68846 -6.60038
2834 2 3.53691 -6.07308 -6.25005
1224 1 4.88546 -6.00536 -6.16064
2483 1 5.67887 -5.68653 -6.30709
484 1 4.64217 -6.63626 -5.69883
1911 1 5.01248 -6.27386 -6.93793
2750 2 6.13748 -6.50153 -5.67186
1258 1 6.77438 -6.50653 -6.59939
2980 2 -5.96617 -5.58508 -6.77119
1505 1 -6.831 -5.57998 -5.96215
647 1 -6.56066 -4.6767 -6.31835
1316 1 -7.00505 -5.06539 -6.95655
1688 1 -4.57147 -5.33456 -6.80872
854 1 -4.98534 -4.37245 -6.84861
3419 2 -5.59676 -5.12197 -6.31858
3240 2 -5.14358 -4.89995 -5.80374
1394 1 -4.07109 -4.7143 -6.41416
899 1 -4.23021 -5.43684 -5.87369
2663 1 -3.25597 -4.91097 -6.6434
11 1 -2.33427 -4.68194 -6.3967
2289 1 -2.91513 -4.41801 -5.89271
1507 1 -2.65753 -5.4905 -6.94891
440 1 -1.89434 -4.88175 -5.74917
2724 1 -0.983831 -5.59426 -6.21339
2624 1 -1.86598 -5.52916 -6.56756
3198 2 -1.18457 -4.69537 -6.69694
417 1 -0.450978 -5.11103 -5.6727
103 1 0.11642 -5.06521 -6.34972
155 1 0.381596 -4.24291 -6.42854
3057 2 1.17143 -5.48531 -6.32577
3520 2 1.55162 -5.08074 -5.80615
2375 1 1.06309 -4.5425 -6.8128
619 1 3.07637 -5.3295 -6.95928
859 1 2.13651 -4.98232 -6.82231
1057 1 2.86547 -4.88124 -6.31495
139 1 3.86867 -4.90334 -6.53565
1702 1 3.87053 -4.51412 -5.84031
1624 1 4.7725 -5.21291 -6.42183
646 1 5.27943 -4.68778 -5.78969
2013 1 4.68342 -4.41028 -6.34736
896 1 6.60959 -4.94612 -5.81539
629 1 6.53483 -5.56302 -6.5123
2756 2 5.97425 -4.59618 -6.6488
1917 1 -5.80872 -4.21166 -6.87131
1225 1 -6.66523 -3.96559 -6.70718
2409 1 -6.40859 -3.24776 -6.29809
261 1 -5.74498 -3.73675 -6.06362
1083 1 -4.555 -3.97379 -6.30502
1032 1 -5.01237 -3.55064 -5.87747
2562 1 -3.92364 -4.00299 -5.84954
1204 1 -4.30427 -3.08655 -5.65314
335 1 -4.16925 -3.11412 -6.50147
2872 2 -3.30069 -3.73356 -6.82439
2763 2 -2.51361 -3.13854 -5.68531
1476 1 -2.11204 -2.93325 -6.78602
2920 2 -3.00341 -3.33758 -6.2242
1075 1 -1.84963 -3.70336 -6.64727
3159 2 -0.782961 -4.13949 -6.222
1122 1 -1.74986 -4.05716 -5.88017
278 1 -1.28915 -3.09676 -6.31377
3471 2 -0.360211 -3.97 -5.67064
1553 1 -0.427876 -3.06853 -6.41404
2152 1 0.393821 -3.37765 -6.34348
1466 1 1.55376 -4.11042 -6.20839
2292 1 1.0019 -3.7469 -5.62129
2278 1 0.865033 -2.94636 -5.70482
2957 2 1.47782 -3.26575 -6.76366
1031 1 2.28925 -3.99509 -6.96369
461 1 2.56423 -4.14674 -6.07302
2406 1 2.66121 -3.35298 -6.36397
1612 1 1.98722 -3.46402 -5.71379
3214 2 3.75872 -3.78168 -6.63406
2760 2 3.95837 -3.29214 -6.07796
1314 1 5.38378 -3.63981 -6.05685
2644 1 5.07484 -3.96355 -6.86839
3579 2 4.5436 -2.93838 -5.76324
1743 1 5.08132 -2.81371 -6.59962
3330 2 6.52947 -4.04169 -6.22563
2743 2 6.7733 -3.53739 -5.65902
1605 1 5.92697 -3.18904 -6.49634
585 1 6.85499 -3.08356 -6.89587
2103 1 -6.01966 -1.68776 -6.47946
343 1 -6.28291 -2.3209 -6.21996
3099 2 -5.34593 -2.68732 -6.46236
2838 2 -4.99953 -2.42793 -5.96784
2687 1 -4.476 -2.1886 -6.88432
2012 1 -4.07168 -1.49665 -6.24015
1186 1 -3.82351 -2.22082 -6.17053
1118 1 -3.47747 -2.53042 -6.91881
774 1 -3.20833 -1.80341 -5.7995
1661 1 -2.12409 -1.69952 -6.72523
328 1 -2.88655 -2.22759 -6.47095
143 1 -2.31651 -1.72691 -5.76559
2545 1 -1.87677 -2.43509 -6.0676
2522 1 -0.920821 -2.71748 -5.64617
2799 2 -0.693828 -1.99073 -6.7289
560 1 -1.36124 -1.65188 -5.96245
3495 2 -1.33367 -2.3023 -7.01681
1573 1 -0.015357 -2.52825 -5.77609
3288 2 -0.311607 -1.42802 -6.28592
533 1 0.56588 -2.28738 -6.38985
3037 2 1.7709 -2.6394 -6.41168
1625 1 1.20632 -1.73619 -6.66105
172 1 1.07728 -1.85848 -5.6273
3067 2 2.17391 -2.08533 -5.86203
1230 1 3.15814 -2.71416 -5.9276
2277 1 2.93467 -1.59781 -6.72209
984 1 3.03298 -2.73974 -6.92583
1730 1 4.27446 -1.98738 -5.8173
2349 1 3.63817 -2.32497 -6.6578
2285 1 3.57798 -1.69204 -5.90164
890 1 5.40674 -1.49748 -6.53278
654 1 5.48448 -2.3092 -6.01685
1290 1 4.63996 -2.12387 -6.7356
1676 1 5.05481 -1.6717 -5.69973
3518 2 6.49009 -1.85831 -6.63038
3113 2 6.79157 -1.51579 -6.03794
2015 1 6.13217 -2.66743 -5.88822
1753 1 6.94926 -2.64209 -6.02464
2266 1 -6.3431 -0.874004 -6.39502
825 1 -5.96148 -0.542464 -5.86251
1607 1 -7.00826 -0.0800721 -5.69403
2359 1 -6.88744 -0.436338 -6.99523
2955 2 -5.31841 -0.4431 -6.87401
3086 2 -4.92841 -0.0122566 -6.2724
875 1 -4.7448 -1.39323 -6.69505
2698 1 -5.43655 -1.29755 -6.1024
586 1 -3.58299 -0.112012 -5.99395
871 1 -4.24135 -0.746849 -6.37691
2942 2 -3.23299 -1.04765 -6.71833
3339 2 -2.63736 -0.765774 -6.15496
1133 1 -1.68569 -1.00721 -6.48338
2643 1 -0.734136 -0.34993 -6.43115
1098 1 -1.77134 -0.267288 -6.91004
635 1 -0.983641 -0.646002 -5.65794
250 1 -0.994163 -0.946588 -7.00076
2301 1 -0.321483 -0.0435561 -5.68419
2336 1 0.480097 -0.0593181 -5.80882
1610 1 0.0751437 -0.27799 -6.53074
2826 2 0.119701 -1.26064 -5.6496
2714 1 0.837027 -0.802145 -6.47377
1146 1 1.32748 -0.176747 -5.82753
532 1 1.35893 -1.10304 -5.95601
1765 1 2.1385 -1.28382 -6.59596
1678 1 2.03091 -0.844116 -5.71253
2570 1 2.95412 -0.945484 -6.05488
2898 2 2.30466 -0.102901 -6.76402
2308 1 3.43736 -0.41295 -6.6327
3227 2 4.23349 -1.08935 -6.33843
462 1 5.52052 -0.750272 -6.7915
2792 2 4.68044 -0.524462 -6.40627
3127 2 4.85676 -0.423392 -5.71115
2553 1 6.84875 -0.5002 -6.29488
1963 1 5.78185 -1.0527 -5.76672
2111 1 6.05685 -0.393605 -6.23641
590 1 -6.27683 -6.20527 -5.22943
625 1 -6.0763 -6.42284 -4.39596
2700 1 -6.84276 -6.82562 -4.34225
3087 2 -5.24525 -6.97069 -5.25846
18 1 -5.48351 -5.91783 -5.04602
3271 2 -4.82726 -6.84248 -4.66003
1384 1 -4.02349 -6.00047 -5.15863
175 1 -3.33593 -6.65151 -5.07156
2151 1 -3.32501 -5.87145 -4.59787
1525 1 -2.45743 -6.51111 -5.07427
971 1 -1.98008 -6.05041 -4.38813
806 1 -1.6758 -6.28038 -5.17183
1376 1 -1.16385 -6.62943 -4.44116
1878 1 -1.47287 -6.97913 -5.1733
2967 2 -0.495345 -6.38168 -5.20089
3377 2 -0.220451 -5.83335 -4.7637
1092 1 0.396115 -7.02306 -5.32475
931 1 1.30055 -5.99118 -4.83612
353 1 0.790521 -6.06106 -5.48786
2425 1 0.667102 -6.45909 -4.71558
535 1 2.84425 -6.20351 -5.47421
3405 2 2.38081 -6.64685 -4.59739
1570 1 3.40718 -5.71442 -4.67591
1824 1 4.3695 -6.3098 -4.9678
2588 1 3.58112 -6.55235 -5.04928
1401 1 3.76938 -6.41829 -4.21781
2143 1 5.27804 -5.98378 -5.42723
1985 1 5.37484 -6.25865 -4.66315
3545 2 6.60148 -6.05482 -5.25448
2421 1 6.22849 -6.285 -4.25052
3245 2 7.00726 -5.74984 -4.57944
1165 1 -6.87256 -4.78626 -5.29169
1450 1 -5.8694 -4.89768 -4.90815
1672 1 -6.09488 -4.2609 -5.61562
1618 1 -6.58961 -4.38849 -4.58516
1164 1 -6.13982 -5.45179 -5.49211
2361 1 -5.43212 -5.42235 -4.28574
767 1 -4.78038 -5.56805 -4.89513
3311 2 -4.77847 -4.42412 -5.37736
1120 1 -5.09025 -4.75625 -4.28787
2240 1 -3.67274 -4.7829 -5.55925
820 1 -4.01426 -5.18361 -5.00141
1542 1 -3.39629 -4.55436 -4.70396
731 1 -3.29236 -5.1512 -4.22202
3555 2 -2.69466 -5.39518 -5.38837
2852 2 -2.30092 -5.02852 -4.67092
2537 1 -1.08634 -4.85599 -5.15735
1266 1 -1.48461 -5.52589 -5.45492
292 1 -0.729025 -4.94151 -4.44531
2243 1 0.383757 -5.16876 -5.50461
3422 2 0.290405 -5.41529 -4.28443
649 1 0.0715549 -4.47989 -4.85241
2518 1 0.65006 -4.39336 -5.5377
2093 1 1.14532 -5.27622 -4.82456
1844 1 0.986313 -4.26287 -4.72085
311 1 2.54034 -5.51135 -5.59765
3075 2 1.96491 -4.57815 -5.28414
98 1 2.6473 -5.32537 -4.68382
1158 1 1.94301 -5.60954 -4.86419
2185 1 3.38189 -4.91847 -4.39702
1467 1 3.19436 -4.91611 -5.36367
1669 1 3.88635 -4.235 -4.9143
2783 2 4.37569 -5.3793 -5.22705
3537 2 5.20749 -4.64585 -4.27754
3303 2 4.80471 -4.9399 -4.79799
1067 1 6.2347 -4.68747 -5.02108
2680 1 5.74711 -5.21817 -5.54269
133 1 6.45821 -4.88543 -4.22034
1220 1 5.89447 -5.56178 -4.70321
1209 1 -5.82755 -4.14709 -4.24253
3100 2 -6.76183 -3.48597 -5.2057
391 1 -5.94541 -2.87885 -5.51955
2940 2 -6.47858 -3.10006 -4.60725
485 1 -5.55897 -3.82723 -5.0941
1731 1 -5.14773 -3.03109 -4.94658
2903 2 -4.41298 -4.08649 -4.76577
1496 1 -4.01421 -2.89621 -4.79138
1892 1 -3.38233 -3.8863 -5.24029
1302 1 -2.39236 -4.05349 -5.15465
2579 1 -2.9297 -4.18377 -4.22948
1293 1 -3.02751 -3.20153 -4.72937
298 1 -1.84919 -3.59674 -4.64249
2521 1 -1.40239 -4.14238 -5.19882
2708 1 -0.7334 -4.13626 -4.5662
509 1 -1.05793 -3.36047 -4.61396
2444 1 -1.38578 -3.26671 -5.42002
3317 2 -0.0952475 -3.47166 -5.28151
3118 2 0.368696 -3.26906 -4.64408
1021 1 1.47555 -3.58052 -4.76386
3499 2 0.820063 -2.82098 -4.25381
3095 2 2.46498 -4.1527 -4.82732
2899 2 2.98154 -3.8136 -4.27573
225 1 2.67813 -3.11444 -5.33956
418 1 3.23679 -3.79016 -5.57822
72 1 4.46076 -3.7081 -4.51798
667 1 4.27171 -2.83547 -4.43137
241 1 3.87325 -3.3281 -5.05124
2398 1 4.69574 -4.01051 -5.314
1182 1 5.28382 -3.60138 -4.5945
359 1 5.69895 -4.01964 -5.36565
603 1 6.26376 -3.80836 -4.6509
2033 1 6.8576 -4.03754 -4.27677
2386 1 6.29561 -2.87267 -4.73276
2628 1 5.80556 -3.21785 -5.38312
2676 1 -5.94128 -1.77774 -5.41858
227 1 -6.6104 -2.26875 -5.34059
2582 1 -6.58543 -1.93468 -4.58212
1167 1 -5.6171 -2.19209 -4.75796
6 1 -4.72788 -2.58736 -4.23346
3473 2 -4.63657 -2.03431 -5.37877
197 1 -3.63342 -2.71509 -5.47539
3341 2 -4.15614 -1.63271 -4.8433
3010 2 -2.13987 -2.57105 -5.03294
300 1 -3.11618 -2.43024 -4.27494
1152 1 -3.08462 -2.06079 -5.02506
488 1 -0.911277 -1.92895 -5.42875
2630 1 -0.644877 -2.72004 -4.62649
3005 2 -1.66216 -2.15323 -4.57745
1454 1 -0.244724 -2.00324 -4.93217
325 1 0.463881 -2.38097 -5.15612
285 1 1.08801 -1.96733 -4.78742
2267 1 1.46073 -2.79336 -5.1089
2786 2 2.48412 -1.69213 -5.17433
210 1 1.93086 -1.90919 -4.36478
1286 1 3.03633 -2.77542 -4.63255
469 1 2.19187 -2.7998 -4.77398
207 1 3.54021 -2.54138 -5.16421
2273 1 4.10095 -1.97943 -4.74278
2844 2 4.9721 -2.64784 -5.13847
2807 2 5.3252 -2.32277 -4.55555
703 1 6.66684 -1.64243 -4.58067
61 1 6.62852 -2.27427 -5.12978
1795 1 5.93026 -1.86772 -5.35757
3201 2 -6.92817 -1.09799 -5.45877
3560 2 -6.37919 -0.92957 -4.96533
3327 2 -5.93358 -0.557237 -4.39313
719 1 -4.8823 -0.543476 -4.93141
1641 1 -5.44287 -1.25315 -5.03031
648 1 -4.88204 -0.918846 -5.58496
2418 1 -5.3928 -0.182854 -5.30061
1961 1 -3.73688 -0.88479 -5.61325
701 1 -4.28511 -0.198045 -4.28692
3546 2 -3.73288 -1.28761 -4.37322
1791 1 -4.13389 -0.374244 -5.1382
3224 2 -2.13191 -0.462907 -5.49222
2443 1 -2.8986 -1.06783 -5.18257
206 1 -2.51171 -0.463881 -4.49084
1901 1 -2.35937 -1.26762 -4.63588
1130 1 -3.15076 -0.345705 -5.16328
2128 1 -0.915386 -1.00652 -4.81162
3557 2 -1.68933 -0.0845817 -5.05052
1803 1 -1.31828 -0.810671 -4.26586
1875 1 -1.60125 -1.29404 -5.21546
2564 1 -0.196243 -1.36632 -4.4406
87 1 -0.34707 -0.361629 -4.83256
3581 2 0.487704 -0.940172 -5.17901
3550 2 0.812283 -0.523093 -4.56885
2503 1 1.53479 -1.33904 -4.75274
2731 1 2.79921 -0.293535 -5.00939
109 1 1.96072 -0.73656 -4.97038
2770 2 3.12089 -1.38354 -4.79122
434 1 3.50589 -0.528136 -5.50311
3310 2 3.55996 -1.02286 -4.29817
1512 1 4.10064 -1.27516 -5.27382
1011 1 4.33419 -0.44978 -4.79494
632 1 5.10625 -0.825599 -4.29948
59 1 4.79889 -1.24947 -4.9372
2176 1 6.44231 -0.757997 -4.34828
1851 1 6.29808 -0.49964 -5.17162
60 1 5.78716 -1.24045 -4.73728
1068 1 -6.59982 -6.34609 -3.6276
1636 1 -5.66036 -6.33776 -3.5592
3105 2 -4.56031 -6.31659 -4.16418
2450 1 -5.11636 -5.66785 -3.63635
2458 1 -5.60704 -5.90297 -2.94127
1468 1 -4.60076 -6.38143 -2.93356
802 1 -5.11165 -6.98848 -3.35567
3117 2 -3.84918 -6.0954 -3.79701
3551 2 -3.60522 -5.72836 -3.08173
2197 1 -2.97271 -6.49463 -4.14836
150 1 -2.70423 -5.6829 -3.8091
182 1 -2.9243 -6.84901 -3.17661
2328 1 -1.20096 -5.82353 -4.1139
3119 2 -1.37877 -6.36728 -2.87134
2842 2 -1.78673 -6.72835 -3.45638
748 1 -0.607523 -5.90229 -3.58653
1427 1 -0.394827 -6.71044 -3.86517
420 1 0.420762 -6.38411 -3.77942
480 1 0.00874204 -6.50123 -3.12344
1229 1 1.15696 -6.53095 -3.99822
2138 1 1.63371 -5.73608 -3.94211
696 1 1.7368 -6.81732 -3.60933
919 1 1.0489 -5.83916 -3.00144
1566 1 1.8102 -6.04157 -3.22525
3077 2 2.68798 -6.30628 -4.03212
3012 2 3.01738 -5.7778 -3.52882
639 1 3.39524 -6.73798 -3.11918
913 1 4.25991 -6.08522 -3.53738
1952 1 4.31862 -6.55934 -2.84571
1693 1 4.64193 -5.94982 -4.21183
2766 2 5.09385 -6.78586 -3.68285
382 1 5.42996 -5.68943 -3.91182
2971 2 5.55637 -6.4406 -3.13682
2693 1 6.54769 -6.71321 -3.59455
2666 1 6.9462 -5.77102 -3.24637
1124 1 6.82353 -6.50637 -2.87199
3344 2 -6.5335 -5.44759 -4.19053
3041 2 -6.27176 -5.03347 -3.5646
385 1 -6.76946 -4.35153 -2.81877
226 1 -4.71722 -4.50399 -3.63792
366 1 -4.82586 -5.50684 -2.91263
2778 2 -5.72957 -4.74485 -3.21385
1009 1 -4.14791 -5.02243 -4.00892
1559 1 -3.6303 -4.52703 -3.44725
1231 1 -4.25215 -4.88561 -3.04196
573 1 -2.85953 -4.86944 -3.42099
568 1 -2.08754 -5.43762 -3.3519
2733 2 -1.78398 -4.69501 -4.20712
57 1 -1.0858 -5.21138 -3.37174
743 1 -0.381674 -4.82135 -3.58665
2323 1 -0.0172629 -5.46845 -2.94441
345 1 1.65136 -4.62572 -4.20652
3565 2 0.743274 -5.11863 -3.68661
3274 2 1.12028 -4.75555 -3.10526
1044 1 2.19522 -5.07039 -4.04333
738 1 2.76836 -4.73337 -3.55982
378 1 2.09821 -5.16904 -3.12522
2856 2 3.47052 -5.56617 -3.07078
2114 1 3.21718 -4.33031 -3.02341
565 1 3.99199 -4.6034 -3.82382
2229 1 3.93253 -5.43202 -4.08141
1191 1 4.59949 -5.26084 -3.52719
3092 2 5.64438 -4.32191 -3.77189
804 1 5.47525 -5.25189 -3.22148
1974 1 4.54532 -4.59054 -3.10692
41 1 6.79536 -4.54445 -3.54402
1053 1 6.19514 -5.60953 -3.7409
2210 1 6.30663 -5.06028 -3.09413
851 1 -6.8573 -3.70036 -3.66409
1588 1 -6.18228 -3.74089 -3.46861
3183 2 -5.99937 -2.89439 -3.94023
897 1 -6.73595 -2.97812 -3.28035
1309 1 -5.17403 -3.64407 -3.96726
1334 1 -4.52195 -2.99802 -3.40415
2119 1 -5.33793 -3.4607 -3.00475
3401 2 -3.53877 -3.5405 -3.70232
3189 2 -4.11019 -3.70347 -4.20202
1291 1 -4.34584 -3.86637 -3.11063
3203 2 -3.20094 -3.18263 -3.09838
1526 1 -2.48632 -4.11636 -3.53
510 1 -2.44451 -3.42041 -4.13428
1862 1 -2.01738 -3.37317 -3.41957
2963 2 -1.40998 -4.1737 -3.7054
3594 2 -0.960646 -3.89729 -3.05567
1890 1 -1.31877 -3.11164 -3.86333
1856 1 -1.63897 -2.96309 -2.8159
2592 1 -0.0359237 -4.17216 -4.06965
1830 1 -0.406398 -3.20922 -3.93455
662 1 0.21828 -4.06553 -3.29587
554 1 0.259017 -3.20923 -3.36926
945 1 0.812599 -4.1416 -3.94368
1026 1 1.27751 -3.65912 -3.5816
1395 1 1.6041 -3.31708 -2.82611
2387 1 1.94941 -4.08275 -3.69831
1760 1 2.53898 -3.61998 -3.10716
1451 1 1.9906 -3.31213 -4.11801
254 1 2.25812 -2.97786 -3.47096
3516 2 3.42314 -3.42706 -3.79453
479 1 4.4671 -3.89724 -3.64665
3006 2 3.62923 -3.05717 -3.1817
410 1 4.91787 -3.68425 -2.9328
1054 1 4.69443 -3.22206 -3.69003
990 1 5.30092 -2.91658 -3.31954
3140 2 5.95592 -3.83028 -3.27927
1708 1 5.76684 -3.15782 -4.00021
2675 1 6.58007 -3.31199 -4.09307
567 1 -5.74992 -1.59817 -4.19887
306 1 -6.33891 -1.42175 -3.53975
1729 1 -6.84984 -1.9187 -3.33861
2060 1 -4.9774 -1.79339 -4.00767
3467 2 -5.21369 -2.1213 -2.844
3259 2 -5.7009 -2.48247 -3.45692
1650 1 -3.9586 -2.38881 -3.88106
251 1 -4.29769 -1.55057 -3.44669
765 1 -3.67802 -1.53502 -3.03486
1414 1 -4.05131 -2.40552 -2.93922
1545 1 -3.21593 -2.17273 -3.40647
1143 1 -2.71196 -1.78785 -4.11141
2121 1 -2.36228 -2.56042 -3.70872
2018 1 -2.19563 -1.59149 -3.55167
2038 1 -2.81617 -1.64065 -2.99199
3428 2 -1.15459 -1.96046 -4.03925
3300 2 -0.879938 -1.41224 -3.60988
1336 1 -1.73384 -2.1744 -3.15758
952 1 -0.776237 -2.67233 -3.0179
1163 1 -0.164477 -2.38378 -4.08058
1303 1 -0.0844898 -2.50036 -3.23058
976 1 0.509183 -1.6408 -4.20173
307 1 0.181968 -1.80484 -3.41676
3542 2 1.16994 -2.54636 -3.6354
2859 2 1.51764 -2.11392 -3.18611
2373 1 2.55012 -2.45114 -3.93537
507 1 2.41223 -1.46248 -3.65224
1221 1 2.93331 -2.38544 -3.03036
2405 1 3.04258 -1.81179 -3.48038
1912 1 3.49612 -2.30853 -4.14719
1770 1 3.92312 -1.95095 -3.52001
1101 1 4.09181 -1.62508 -2.80949
2201 1 4.66692 -2.34355 -3.65535
814 1 4.63569 -1.56963 -4.10512
2404 1 4.91153 -1.55672 -3.31973
1825 1 6.96333 -2.41885 -4.11767
3451 2 5.79477 -1.97055 -4.00594
2461 1 6.39717 -2.7504 -3.39232
3527 2 6.24368 -1.71242 -3.45698
66 1 -6.87197 -1.03797 -4.15418
1233 1 -6.95108 -0.0739519 -4.11186
2319 1 -6.08538 -0.988531 -2.98756
1738 1 -6.54308 -0.417027 -3.49904
1578 1 -4.82432 -0.99877 -4.14984
3204 2 -5.61738 -0.1492 -3.81927
2085 1 -5.35616 -1.17996 -3.47155
1574 1 -4.52069 -0.721522 -3.34253
2212 1 -4.01639 -0.0664122 -3.5107
3490 2 -3.36232 -0.89471 -3.88494
1924 1 -1.98546 -0.966303 -3.97299
3147 2 -2.93245 -0.600749 -3.34089
1986 1 -0.79212 -0.344599 -3.85843
842 1 -1.86462 -0.241651 -3.76325
1732 1 -1.20791 -0.209136 -3.14803
84 1 -1.73296 -0.900291 -3.06796
1251 1 -0.0742363 -0.654248 -3.95854
3181 2 -0.635519 -1.16121 -2.88005
2047 1 0.504643 -0.862976 -3.43449
2354 1 0.0121556 -0.0259532 -3.31415
3397 2 1.31719 -0.161013 -4.11789
2652 1 1.38997 -1.40208 -3.94835
1495 1 0.883109 -0.161035 -3.02994
20 1 1.37218 -0.968904 -3.11509
1734 1 2.81249 -0.246595 -4.03509
688 1 2.21781 -0.783171 -4.1949
1264 1 2.83112 -0.801073 -3.32328
2064 1 2.15024 -0.683103 -2.93936
1701 1 3.32728 -0.00868587 -3.16818
2833 2 4.01705 -0.731853 -3.76394
1799 1 5.3885 -0.868061 -3.16741
2804 2 4.47339 -0.594791 -3.13447
2574 1 5.8062 -0.449473 -3.96829
3592 2 6.3356 -1.00941 -3.17529
3309 2 -6.1482 -6.96021 -2.74693
320 1 -5.84217 -5.63793 -2.19333
1200 1 -6.32832 -6.0576 -1.73089
2286 1 -6.57292 -5.82336 -2.6425
2238 1 -7.00459 -6.63728 -1.92589
3440 2 -5.57046 -6.94044 -2.28685
3523 2 -5.07225 -6.47564 -1.85599
2360 1 -4.02423 -6.26718 -2.17221
2459 1 -3.64461 -6.65711 -2.7411
1393 1 -3.32557 -6.10317 -1.83911
1894 1 -2.43539 -5.87385 -2.80692
1510 1 -2.87856 -6.4901 -2.47529
2585 1 -2.48179 -6.14333 -1.63745
1169 1 -2.0849 -6.36759 -2.21653
2747 2 -0.752094 -6.02018 -2.37871
2039 1 -1.42595 -6.49048 -1.49642
3064 2 -0.637833 -5.76132 -1.72113
1022 1 -0.376456 -6.83802 -1.46285
2190 1 -0.00213924 -6.98607 -2.24162
918 1 0.458323 -6.06832 -2.50247
196 1 0.485229 -6.53139 -1.68292
3021 2 1.70208 -6.56075 -1.95403
1671 1 1.3354 -5.65138 -2.28687
3268 2 1.35648 -6.924 -2.43306
1024 1 2.99945 -6.25923 -2.20072
1244 1 2.41835 -6.26047 -2.71079
2183 1 3.80107 -6.45383 -2.24114
2097 1 3.56403 -5.79173 -1.71681
412 1 4.47423 -5.95702 -1.76721
733 1 4.81443 -5.72135 -2.67856
2245 1 4.92345 -6.567 -2.19719
1544 1 5.29578 -5.93998 -1.53354
2758 2 5.8027 -6.16663 -2.52801
3285 2 6.36245 -5.75477 -2.17453
1402 1 6.21139 -6.80386 -1.75503
191 1 -6.15529 -4.77322 -2.02731
465 1 -6.75149 -5.02766 -2.49669
2209 1 -5.12978 -5.36151 -2.07276
2748 2 -5.36692 -4.55784 -2.57275
2372 1 -3.88854 -4.39796 -2.47304
1988 1 -4.24437 -5.45015 -2.11484
2535 1 -4.0127 -4.73091 -1.66176
1665 1 -2.02316 -4.78231 -2.80753
2739 2 -3.16474 -5.24089 -2.51352
2810 2 -2.76531 -4.96548 -1.90515
2419 1 -0.726993 -4.50078 -1.7599
374 1 -1.80949 -5.53876 -2.19791
2600 1 -1.25226 -4.9624 -2.41433
2551 1 -0.181482 -4.7547 -2.65711
2339 1 0.550968 -5.14327 -2.26744
626 1 0.152292 -4.39592 -2.03192
1558 1 1.35177 -5.05832 -1.58207
459 1 1.09976 -4.35286 -1.63039
3071 2 1.60393 -4.45836 -2.52544
2705 1 2.92315 -5.27936 -1.84308
953 1 2.29972 -5.46169 -2.52021
436 1 2.86731 -4.87817 -2.51359
219 1 2.12331 -5.09469 -1.68735
1279 1 3.31401 -4.48752 -1.74609
3170 2 3.9448 -5.37485 -2.59158
3108 2 4.20951 -4.83911 -2.09514
370 1 5.42383 -5.17759 -1.92888
2970 2 4.74428 -4.50769 -1.6595
996 1 5.24061 -4.56086 -2.64428
3145 2 6.77389 -5.31212 -1.68907
2109 1 6.6263 -4.3195 -1.54244
1430 1 6.19692 -4.5415 -2.20922
58 1 -6.63729 -4.09026 -2.06551
1822 1 -6.15644 -3.69017 -2.65523
964 1 -5.9311 -4.00398 -1.5436
744 1 -5.85614 -3.28427 -1.9577
3352 2 -4.47033 -3.58193 -1.41356
2831 2 -4.84512 -4.08737 -2.03007
2701 1 -5.19158 -3.02784 -2.1125
542 1 -4.52081 -3.09627 -2.57767
2178 1 -3.80095 -3.3605 -2.22448
2350 1 -3.36883 -4.02605 -1.82465
940 1 -2.57147 -3.52296 -1.7844
1335 1 -3.07234 -4.15872 -2.60075
115 1 -2.19481 -3.81741 -2.5818
467 1 -1.56594 -4.04029 -2.09455
232 1 -1.56657 -3.16461 -2.08335
3062 2 -0.554418 -3.56706 -2.4869
3039 2 -0.139201 -3.11191 -2.10049
1245 1 0.786332 -3.76733 -1.90025
332 1 0.785808 -3.52617 -2.76838
1808 1 1.2886 -3.13526 -1.97191
3514 2 2.31835 -3.75883 -1.63302
2968 2 2.1808 -4.12865 -2.21701
2448 1 2.49904 -2.82834 -2.54133
1831 1 3.04222 -3.4017 -2.41179
1874 1 3.63433 -3.75627 -1.9266
1594 1 3.94099 -3.98237 -2.75685
2215 1 3.94477 -3.11361 -1.56943
593 1 5.52233 -4.00315 -2.0729
2614 1 4.51999 -3.68485 -2.23464
1250 1 4.85865 -3.16997 -1.42676
1360 1 5.37113 -3.12013 -2.17462
2956 2 6.45498 -3.60817 -2.67324
2780 2 6.73417 -3.28072 -2.04281
1388 1 -6.89074 -1.84032 -1.94009
561 1 -6.18595 -1.42123 -1.67429
1399 1 -6.21962 -2.68916 -2.5486
881 1 -6.37085 -1.74848 -2.64137
3424 2 -6.78538 -2.76812 -1.54371
2870 2 -4.86681 -1.58563 -2.46421
2578 1 -5.63833 -2.18729 -1.88811
741 1 -4.80033 -2.55591 -1.51903
1093 1 -3.5591 -1.95383 -1.47965
2168 1 -4.09159 -2.41318 -2.07119
30 1 -3.42044 -2.80037 -1.62248
2133 1 -3.45113 -1.83781 -2.40572
3018 2 -2.91391 -2.7869 -2.53866
2809 2 -2.47249 -2.31883 -2.25183
2927 2 -2.10358 -2.05689 -1.56446
2227 1 -2.87204 -1.4256 -1.48879
1100 1 -1.76544 -1.51625 -2.57112
1615 1 -1.13245 -2.00901 -2.42346
1242 1 -1.1099 -2.60632 -1.67511
661 1 -0.522873 -1.95406 -1.75398
1043 1 0.629152 -2.70074 -2.74007
2771 2 0.212181 -2.70603 -1.6182
289 1 0.0291882 -2.04735 -2.45581
1502 1 0.0682012 -1.54158 -1.53801
2626 1 0.722133 -1.57375 -2.77429
1648 1 1.77929 -2.59118 -1.62729
583 1 1.11191 -2.09661 -2.17453
3549 2 2.02709 -1.77752 -2.67918
3 1 2.66882 -2.46775 -1.62087
2983 2 2.48533 -1.40854 -2.06314
2378 1 3.4309 -1.8322 -2.40322
1532 1 3.37749 -2.62545 -2.02923
2752 2 4.22688 -2.74206 -2.65563
69 1 3.6624 -2.09342 -1.44613
3028 2 4.6728 -2.33011 -2.0755
1370 1 5.42371 -1.72522 -2.65858
2857 2 5.10075 -1.89532 -1.54484
1404 1 5.7834 -2.60788 -2.7636
2589 1 6.87665 -2.39877 -2.74508
1609 1 6.20156 -1.74838 -2.22687
1140 1 5.99443 -2.3832 -1.7853
3069 2 -6.96569 -0.493366 -1.95276
1438 1 -5.8118 -0.942186 -2.23493
3304 2 -6.4381 -0.167091 -1.53789
1237 1 -5.91829 -0.232419 -2.79313
3486 2 -4.47264 -1.37071 -1.84884
437 1 -5.04705 -0.461518 -2.63197
16 1 -5.32582 -0.460433 -1.58423
1946 1 -3.81148 -0.745559 -2.60991
3162 2 -4.03534 -0.963134 -1.41119
1371 1 -4.35187 -0.232312 -2.19111
2446 1 -2.18845 -0.877634 -1.8864
3242 2 -2.50028 -0.220438 -2.79706
634 1 -3.176 -1.19581 -2.14667
1577 1 -2.96672 -0.39604 -1.89671
2397 1 -1.5237 -0.415192 -1.52496
782 1 -1.15476 -0.373079 -2.35069
2037 1 -1.16036 -1.11675 -2.0095
2488 1 -0.476551 -0.872394 -1.40978
3335 2 -0.113308 -0.81588 -2.53668
3543 2 0.24333 -0.404186 -2.01494
476 1 1.7785 -0.460009 -1.67312
1622 1 0.780468 -1.3135 -1.97593
1078 1 1.34085 -0.806871 -2.33648
3416 2 0.676586 -0.0136874 -1.61534
1785 1 2.41468 -0.143531 -2.29763
2815 2 2.92101 -1.04532 -1.61422
1680 1 3.16821 -0.421056 -2.47917
2196 1 3.43084 -1.10353 -2.76017
803 1 3.95733 -0.608861 -2.0923
404 1 3.9787 -1.34126 -1.76326
1699 1 4.64211 -1.28075 -2.22635
2515 1 5.68482 -0.834954 -2.30652
1298 1 5.0417 -0.637811 -1.79157
3363 2 4.53603 -0.0391932 -2.63332
1576 1 5.78126 -0.178889 -2.79668
1463 1 6.05678 -0.702695 -1.44141
3436 2 6.88743 -0.867127 -2.6245
2100 1 -6.3173 -5.82784 -0.242717
2573 1 -5.78911 -5.92115 -1.04145
837 1 -6.67537 -6.33517 -0.913885
154 1 -5.77295 -6.80972 -0.919647
384 1 -5.38224 -6.31153 -0.36557
2762 2 -4.60468 -6.03983 -1.17174
3484 2 -4.21112 -5.79476 -0.540606
1670 1 -4.19965 -6.70198 -0.00981817
2721 1 -3.83359 -6.77862 -1.35836
2193 1 -3.48635 -6.63139 -0.387971
2195 1 -3.16238 -6.05412 -0.936909
3437 2 -2.07871 -6.70106 -0.441284
2329 1 -2.59639 -5.65386 -0.698462
1932 1 -1.20442 -6.9132 -0.928403
1238 1 -1.77159 -5.7244 -1.2306
1764 1 -1.03683 -5.83224 -0.876045
2896 2 -1.67251 -6.21043 -0.0337682
2464 1 -0.584414 -6.45997 -0.276648
1348 1 0.12952 -6.37741 -0.941513
499 1 1.7479 -6.27975 -0.461907
1725 1 0.899925 -6.15658 -0.457975
1117 1 0.996205 -5.87873 -1.32373
1872 1 0.997086 -6.99967 -1.11363
2621 1 2.65275 -6.89991 -0.472781
3582 2 2.10716 -6.19946 -1.40014
3286 2 2.59963 -5.83904 -0.886193
1858 1 3.31504 -6.61627 -1.33349
614 1 4.26032 -5.74742 -0.088612
1709 1 3.6723 -6.13701 -0.752828
3541 2 4.42121 -6.81023 -1.04019
1409 1 3.51842 -6.99803 -0.490093
3079 2 4.86736 -6.41049 -0.57899
2854 2 5.46643 -6.14817 -0.110259
1954 1 5.7818 -6.74588 -0.979368
2187 1 6.02552 -5.88848 -1.0181
2305 1 6.62775 -6.45185 -1.09874
1413 1 6.77845 -5.90209 -0.157255
3381 2 -6.73154 -5.15458 -1.18395
2932 2 -6.36251 -4.7704 -0.703427
3435 2 -6.10404 -4.46452 -0.037168
1492 1 -4.59894 -4.74459 -1.17839
466 1 -5.29374 -5.30227 -0.364085
243 1 -4.81341 -4.63905 -0.403848
1548 1 -5.48178 -5.1526 -1.25019
152 1 -3.53095 -4.7589 -1.03572
3053 2 -3.81099 -5.39512 -0.0211799
845 1 -4.05784 -4.34043 -0.476455
2546 1 -3.54954 -5.46493 -1.34931
3032 2 -2.35791 -4.56363 -1.3548
2004 1 -2.82269 -4.87717 -0.43097
107 1 -1.31749 -4.9279 -1.37479
122 1 -1.00454 -5.12917 -0.343444
1893 1 -1.81069 -5.07135 -0.50341
2717 1 -0.530175 -4.424 -0.692599
1119 1 -0.261511 -5.47858 -0.0770366
3278 2 -0.154065 -5.32594 -1.25977
2775 2 0.51995 -4.95126 -0.843259
3521 2 0.878376 -4.43731 -0.261451
495 1 1.54374 -5.37636 -0.628361
2987 2 3.11305 -5.28206 -0.364985
2688 1 2.86159 -4.66228 -1.04637
130 1 2.01706 -4.61633 -0.922853
1726 1 2.19808 -4.82368 -0.0140613
1715 1 3.7583 -5.16953 -1.05257
1700 1 4.12466 -4.44696 -0.305492
2236 1 4.67238 -5.03703 -0.0159737
2043 1 5.28332 -5.25691 -0.922194
1442 1 4.48794 -5.42611 -0.913575
346 1 6.65696 -4.57191 -0.188524
633 1 6.03034 -4.73346 -1.05834
1429 1 6.42972 -5.33406 -0.55424
704 1 5.917 -4.87962 -0.0182849
1941 1 -6.67511 -3.71386 -1.02002
2317 1 -6.54116 -3.27362 -0.210771
2390 1 -5.77645 -3.42479 -0.514636
2683 1 -4.91695 -3.83609 -0.474117
88 1 -5.3316 -4.13937 -1.03807
790 1 -5.36907 -3.10922 -1.17624
1025 1 -5.18795 -2.98773 -0.216972
3536 2 -4.09692 -3.25788 -0.83199
2819 2 -3.7582 -2.93695 -0.30316
1214 1 -3.20651 -3.99916 -0.405935
848 1 -3.14245 -3.56484 -1.19564
558 1 -2.53384 -3.35911 -0.510331
17 1 -2.12522 -3.07281 -1.32578
3142 2 -1.79221 -4.07256 -0.797663
1547 1 -1.03927 -3.56825 -1.36029
3063 2 -1.35275 -3.69204 -0.175218
1646 1 -1.12685 -2.81281 -0.803217
892 1 -0.323784 -3.61415 -0.958345
1076 1 -0.147543 -3.02835 -0.421569
2587 1 0.398534 -4.0122 -1.29952
914 1 1.50783 -4.02348 -1.10459
1539 1 0.749169 -3.09936 -0.077394
1234 1 1.53249 -3.16373 -1.09501
2704 1 1.76647 -3.38926 -0.400132
800 1 0.652024 -3.47166 -0.706148
1135 1 3.18902 -4.12902 -0.422317
2063 1 2.34219 -3.9836 -0.323745
3239 2 2.78708 -3.29973 -1.04045
3215 2 3.28424 -2.98272 -0.632896
2331 1 3.78418 -4.21373 -1.0642
2241 1 4.2996 -3.63999 -0.178792
50 1 4.30639 -3.21747 -0.822822
3190 2 5.48556 -3.94843 -0.363413
2830 2 4.99726 -4.12984 -1.0266
1129 1 5.66207 -2.89027 -0.968198
1462 1 6.68933 -3.9928 -0.79691
497 1 5.92673 -3.55781 -1.36128
1681 1 6.5373 -3.15948 -0.725942
3266 2 -6.21229 -2.57059 -1.17716
2757 2 -6.18533 -2.00942 -0.682637
3511 2 -5.84897 -1.82453 -0.115685
2525 1 -5.30273 -1.6348 -1.29335
1658 1 -4.76106 -1.47445 -0.566719
1280 1 -5.01617 -2.31653 -0.74991
833 1 -4.14839 -2.0123 -0.96585
1899 1 -3.76633 -1.62057 -0.317375
2441 1 -2.22667 -1.65221 -0.317168
1959 1 -1.97694 -2.66523 -0.408498
134 1 -2.80318 -2.56393 -0.98166
988 1 -3.05712 -1.83057 -0.621384
2811 2 -1.562 -1.64215 -1.08586
563 1 -0.548457 -2.24482 -0.731765
3489 2 1.48509 -1.62245 -0.00876754
2917 2 0.949501 -1.94846 -0.4577
2740 2 0.792878 -2.46195 -1.09101
1841 1 2.55317 -1.439 -0.442632
2275 1 1.97803 -1.9912 -1.02027
1925 1 2.98022 -1.98783 -0.949529
1786 1 2.11518 -2.56772 -0.543456
76 1 3.58156 -1.63076 -0.463379
1070 1 4.25034 -2.32668 -0.828706
3476 2 3.60523 -2.72984 -0.0610407
1749 1 4.60333 -1.60951 -0.174369
2297 1 4.93435 -2.68091 -0.51955
3444 2 5.45935 -1.5923 -1.04121
781 1 6.8737 -1.73459 -0.556856
287 1 6.54247 -1.49787 -1.38754
1352 1 6.44152 -2.27174 -1.07194
91 1 5.82814 -2.52122 -0.157535
1981 1 6.9037 -2.59509 -0.207281
2637 1 -6.47091 -0.566722 -0.516058
222 1 -6.77732 -1.18759 -1.13448
283 1 -6.68033 -1.2055 -0.0876911
994 1 -4.9838 -0.419572 -0.0178787
2082 1 -5.72231 -0.905877 -1.01608
1347 1 -4.91773 -0.645018 -0.879725
1969 1 -5.74217 -0.629689 -0.233005
3458 2 -3.5463 -0.611498 -0.956408
99 1 -4.36429 -0.931808 -0.075702
1113 1 -4.37769 -0.0651649 -0.525235
3454 2 -3.32143 -0.278787 -0.371074
2479 1 -2.03386 -0.406937 -0.621584
208 1 -2.45476 -0.923133 -0.942529
817 1 -2.78395 -1.15827 -0.121162
1080 1 -0.969278 -0.241765 -0.820351
2790 2 -1.0991 -1.24775 -0.514621
1216 1 -0.180216 -0.0899271 -0.749906
1107 1 -0.0717961 -1.39507 -0.740359
456 1 0.5551 -1.0287 -1.00614
1062 1 0.583785 -0.367351 -0.427484
1772 1 1.55858 -0.535676 -0.472653
1138 1 1.39071 -1.29383 -1.24397
1710 1 2.49575 -0.756634 -0.111064
408 1 2.09009 -0.90027 -0.93357
2171 1 2.34799 -0.074764 -1.2541
3139 2 3.31909 -0.824348 -1.07857
3228 2 3.50569 -0.389074 -0.414011
200 1 4.35923 -1.17223 -0.984091
2402 1 4.93384 -0.654969 -0.511402
1088 1 4.64809 -0.410216 -1.17538
1860 1 5.73113 -0.16171 -0.946105
1781 1 5.29813 -0.0360182 -0.0992523
3024 2 5.74698 -1.36993 -0.429615
442 1 6.77205 -0.471607 -0.888873
3314 2 -6.13922 -6.59215 0.403246
464 1 -6.84611 -5.97095 0.873463
3082 2 -5.64517 -6.30562 0.952076
1592 1 -4.80736 -5.71183 0.463699
1503 1 -4.51414 -6.58478 0.87961
1104 1 -4.15087 -5.69812 1.06967
1359 1 -3.53613 -6.20711 0.679091
2014 1 -3.43371 -5.72408 1.34497