ITEM: TIMESTEP
0
ITEM: NUMBER OF ATOMS
3594
ITEM: BOX BOUNDS pp pp pp
-7.4938186683514321e+00 7.4938186683514321e+00
-7.4938186683514321e+00 7.4938186683514321e+00
-7.4938186683514321e+00 7.4938186683514321e+00
ITEM: ATOMS id type x y z
801 1 -7.24892 -6.47416 -6.62793
1843 1 -6.26974 -7.04771 -6.79224
1942 1 -5.43107 -7.11025 -6.36204
522 1 -4.95926 -6.90158 -7.02127
2578 1 -4.01235 -6.8754 -6.77655
2708 1 -3.30311 -7.06673 -7.33185
1528 1 -2.63761 -7.00211 -6.9573
1414 1 -2.04298 -7.3906 -7.23567
3113 2 -1.49066 -6.41659 -6.55416
1580 1 -0.667358 -7.48493 -6.42576
2704 1 -0.502519 -6.29405 -7.27054
1663 1 -0.0761855 -6.42363 -6.45184
2375 1 -7.02242 -5.99985 -7.22174
1940 1 -6.5005 -5.27895 -7.06117
3135 2 -5.77646 -6.03589 -6.79454
210 1 -4.61769 -5.79994 -6.78122
25 1 -4.87051 -5.00526 -6.95893
740 1 -4.00318 -5.08608 -6.89781
1383 1 -2.64722 -5.29503 -6.9356
2889 2 -2.80475 -6.1959 -6.61208
2873 2 -3.61179 -5.9063 -7.31372
1897 1 -1.69306 -5.52142 -6.60644
1649 1 -1.51372 -5.86948 -7.4808
1477 1 -0.767644 -5.50861 -6.96907
2493 1 -6.74804 -4.03944 -6.49471
1925 1 -7.17573 -3.81252 -7.27804
29 1 -7.11473 -4.8302 -7.10034
3236 2 -5.44935 -3.81832 -6.92917
344 1 -5.85479 -4.91097 -6.49328
1434 1 -6.16823 -4.30957 -6.91971
1237 1 -3.75653 -4.39118 -7.42956
549 1 -3.28553 -3.74799 -6.9335
2145 1 -2.86385 -4.63974 -6.3555
1476 1 -3.06331 -4.78856 -7.09197
3047 2 -1.63543 -4.43673 -7.19174
3297 2 -2.00171 -3.78255 -6.45084
353 1 -0.344071 -4.78343 -7.16199
1792 1 -0.899982 -4.79567 -6.44283
1404 1 -7.18727 -3.02031 -7.36758
2113 1 -6.5672 -3.18572 -6.65777
1715 1 -5.64197 -2.61381 -6.99265
1535 1 -3.87578 -2.5522 -6.38853
2689 1 -4.605 -2.60726 -6.64445
641 1 -4.90462 -2.71748 -7.48927
1120 1 -4.08461 -3.58228 -7.34222
3008 2 -4.77387 -3.69081 -6.37539
1685 1 -1.37957 -3.09596 -7.01148
374 1 -2.34879 -2.98481 -7.27424
23 1 -0.955591 -3.47386 -6.33672
2388 1 -0.18966 -3.12288 -7.24391
1916 1 -0.423254 -3.69317 -6.80729
2057 1 -6.54358 -2.05466 -6.40726
1892 1 -7.44823 -1.89274 -7.26094
2306 1 -6.63928 -1.52386 -7.34007
1336 1 -7.25869 -1.30521 -6.53285
274 1 -5.17219 -1.70623 -7.38447
238 1 -4.23488 -1.79643 -7.03345
2285 1 -3.06 -2.03687 -6.72398
58 1 -2.16966 -2.29112 -6.43838
1841 1 -1.62854 -2.17707 -7.03131
113 1 -0.736237 -1.52084 -6.40539
3337 2 -0.00608977 -1.75774 -6.87985
2971 2 -7.41421 -0.0937426 -7.34701
1370 1 -6.63879 -0.622377 -6.52162
9 1 -5.85821 -1.1266 -7.02087
990 1 -5.95972 -0.0443842 -6.96232
2508 1 -4.15286 -0.924831 -7.16328
666 1 -4.73711 -0.366956 -6.57189
3368 2 -2.74309 -1.03539 -6.89284
1623 1 -2.51156 -0.360198 -6.29754
3194 2 -3.43245 -0.893302 -6.46282
864 1 -3.26532 -0.0306614 -7.20218
494 1 -1.56268 -0.777934 -6.66072
2999 2 -1.97007 -1.22755 -7.41188
2063 1 -0.296677 -0.265222 -7.03552
2501 1 -0.166385 -0.919701 -6.38936
2017 1 -1.2458 -0.287084 -7.45883
1384 1 -6.318 -6.47411 -5.01058
1129 1 -7.27901 -6.90906 -5.81208
2619 1 -6.14341 -6.94144 -5.95877
3392 2 -4.63675 -7.32798 -5.33507
1060 1 -4.34349 -6.48594 -5.99057
3562 2 -3.02502 -6.46897 -5.69482
3066 2 -3.6184 -6.31766 -5.27427
2147 1 -2.52128 -7.44522 -5.86044
3491 2 -2.24779 -6.30509 -6.07571
1725 1 -1.8395 -7.25287 -5.57207
2405 1 -1.02905 -6.92572 -5.84559
2787 2 -6.2936 -5.96571 -6.03532
3475 2 -6.76194 -5.16446 -5.75113
1801 1 -7.44822 -6.00505 -5.6759
430 1 -5.05636 -6.12435 -6.11642
809 1 -5.3553 -5.68965 -5.53508
1362 1 -3.96114 -5.70025 -6.20302
3028 2 -4.21592 -5.87713 -5.12706
1271 1 -2.84145 -5.41178 -5.63432
1093 1 -3.52734 -5.04016 -6.09033
1381 1 -1.53929 -5.28028 -5.70294
2721 1 -1.85561 -6.02322 -5.02229
2429 1 -0.87285 -6.17499 -5.18723
2256 1 -0.628809 -5.38965 -5.67206
3120 2 -7.30109 -4.55015 -5.70597
696 1 -5.01695 -4.93777 -6.0716
542 1 -5.247 -4.81955 -5.2525
2010 1 -6.11277 -4.96041 -5.01028
1628 1 -5.99018 -4.32561 -5.75205
245 1 -5.21383 -3.90718 -5.64937
2661 1 -4.41186 -4.66247 -5.57769
2327 1 -3.34955 -4.56056 -5.16608
2426 1 -3.32436 -4.00124 -6.09746
581 1 -2.62081 -3.86668 -5.55371
2380 1 -2.25598 -4.93799 -6.16379
1842 1 -0.127977 -4.7285 -5.30687
636 1 -1.0237 -4.17202 -5.95956
1439 1 -6.82427 -2.92886 -5.14162
3588 2 -7.37708 -2.85494 -6.23345
779 1 -6.49741 -3.68025 -5.68292
881 1 -5.8776 -3.3055 -5.25441
2543 1 -5.38893 -2.65793 -5.97145
127 1 -4.58564 -3.60574 -5.19341
995 1 -4.03857 -3.12654 -5.67243
2618 1 -3.90409 -3.72879 -5.2788
3188 2 -2.96602 -2.95762 -6.15565
3389 2 -2.77972 -2.54427 -5.40625
2144 1 -1.47036 -2.60623 -6.07991
2552 1 -0.912413 -2.49887 -5.54906
1788 1 -1.17618 -3.70957 -5.12311
1201 1 -6.7529 -1.42498 -5.91531
845 1 -6.582 -2.47712 -5.73296
1396 1 -7.12396 -1.66048 -5.25566
3092 2 -5.75216 -1.66069 -5.37623
3568 2 -5.23298 -2.36876 -5.00365
2514 1 -4.21426 -1.39637 -5.12304
1593 1 -4.41011 -2.11443 -5.75226
2018 1 -3.76744 -2.07568 -5.22776
2428 1 -3.22985 -1.63814 -5.99506
2516 1 -2.52167 -1.47845 -5.8774
2367 1 -1.81611 -1.84885 -5.93009
301 1 -1.21586 -1.78555 -5.11469
843 1 -0.393055 -1.49744 -5.56105
1046 1 -7.37534 -0.493808 -6.11016
1737 1 -6.35185 -0.657083 -5.70075
28 1 -5.71764 -0.310724 -5.3749
3380 2 -5.31905 -1.21689 -6.06772
1894 1 -4.42365 -0.823965 -5.6851
2134 1 -3.05724 -1.12436 -5.06866
2820 2 -3.40794 -0.241869 -6.09139
1035 1 -2.54892 -0.743286 -5.53238
3085 2 -1.51379 -0.370037 -5.51785
3117 2 -0.626277 -0.155505 -5.572
1526 1 -6.98735 -6.24505 -4.86291
2907 2 -6.72406 -7.11586 -3.85491
1337 1 -7.41053 -7.12171 -4.8135
519 1 -5.54331 -6.24578 -4.98481
899 1 -5.92775 -7.30799 -4.82159
1544 1 -5.19253 -7.21134 -4.15404
368 1 -4.79707 -6.29108 -4.11286
556 1 -4.08818 -6.96452 -4.07846
1174 1 -3.38677 -7.16113 -4.70375
236 1 -3.66172 -6.37662 -3.95151
2295 1 -2.44781 -6.98741 -4.78703
275 1 -1.70223 -6.70423 -4.69928
2033 1 -0.128125 -6.47966 -4.3833
1985 1 -0.672681 -7.10099 -4.20322
1110 1 -6.77947 -5.24601 -4.5436
3005 2 -6.50931 -6.06918 -3.99697
2348 1 -5.64951 -5.43323 -4.39742
2827 2 -4.67273 -5.1581 -4.26178
3324 2 -4.28501 -5.27424 -4.84136
2091 1 -2.98302 -5.19005 -4.77715
2359 1 -3.0549 -5.95637 -4.41514
997 1 -3.58052 -5.43145 -4.00614
792 1 -2.8083 -5.0204 -3.87338
166 1 -1.34404 -5.98896 -4.00362
1200 1 -0.544352 -5.69766 -3.95489
2498 1 -6.89605 -3.9978 -4.97073
638 1 -6.55364 -4.33535 -4.13715
2255 1 -5.99052 -4.76728 -3.86214
1161 1 -5.10096 -3.98474 -4.56012
727 1 -5.97428 -4.10371 -4.83572
998 1 -5.46461 -4.33119 -3.74995
1168 1 -4.15578 -4.23666 -4.57776
691 1 -3.7904 -3.9008 -4.06491
489 1 -2.92615 -4.0376 -4.51691
3185 2 -1.88906 -4.8977 -4.60655
1508 1 -1.49766 -4.35036 -3.75404
1003 1 -2.15386 -3.8129 -4.34012
2047 1 -0.0558222 -4.26476 -4.69842
2987 2 -0.934364 -4.85554 -4.72619
2981 2 -6.53356 -3.37548 -4.03145
3178 2 -5.61013 -3.10117 -4.26633
3179 2 -4.71415 -2.82667 -4.51789
788 1 -2.85836 -2.7239 -3.96193
985 1 -3.54853 -3.17585 -3.75691
2175 1 -3.50758 -3.40722 -4.78949
2805 2 -2.03533 -2.66829 -4.81781
1959 1 -1.22668 -3.31814 -4.29429
1398 1 -0.449785 -3.68499 -4.05214
2032 1 -0.488925 -2.74971 -4.61268
1557 1 -6.9978 -1.30202 -4.37182
1255 1 -6.96806 -2.17533 -3.94035
3157 2 -6.20713 -2.11085 -4.68177
1713 1 -4.55881 -1.67337 -4.15275
1223 1 -3.40216 -2.05799 -4.2922
2964 2 -2.39661 -1.38605 -3.97258
2103 1 -1.47297 -2.37652 -3.94026
3140 2 -2.38506 -1.89857 -4.82125
978 1 -0.699445 -1.8895 -4.53313
2626 1 -1.16907 -1.42526 -4.24194
2036 1 -0.0920109 -1.46574 -4.62259
3016 2 -6.96431 -0.0648246 -4.02579
2664 1 -5.22278 -1.21572 -4.57631
1749 1 -6.17997 -0.968041 -4.77611
754 1 -5.05029 -0.364324 -4.91476
2041 1 -4.16231 -0.662641 -4.06304
935 1 -3.53235 -1.08573 -4.45327
3019 2 -2.86011 -0.734269 -3.7538
1061 1 -3.26726 -0.199448 -4.77637
1615 1 -1.95764 -1.02198 -4.91986
3553 2 -2.16524 -0.2913 -4.19479
1937 1 -0.883537 -0.811565 -4.57051
743 1 -0.109973 -0.527569 -4.6462
2059 1 -0.821196 -0.098267 -3.92344
789 1 -7.48071 -7.13736 -2.53828
672 1 -6.73373 -7.15314 -2.80962
227 1 -7.15932 -6.38269 -2.71994
3104 2 -5.89955 -6.47865 -3.69198
2061 1 -5.7145 -7.35434 -2.98725
676 1 -4.94523 -6.90174 -3.1364
3243 2 -4.19981 -7.27134 -2.8399
1066 1 -3.78098 -6.39886 -2.97779
2275 1 -2.72883 -6.91416 -2.56482
2821 2 -3.05568 -7.26209 -3.55307
3122 2 -2.611 -6.64536 -3.6691
2468 1 -1.73557 -6.92382 -3.4515
2270 1 -1.29726 -7.15783 -2.54786
2159 1 -1.03814 -7.10978 -3.42394
1213 1 -0.223687 -7.36651 -3.51406
778 1 -0.0554638 -7.34244 -2.54804
3461 2 -7.35117 -5.43661 -3.44676
1965 1 -5.13924 -6.08826 -2.68618
660 1 -5.53323 -5.50015 -3.42609
1212 1 -6.20521 -5.49862 -2.90343
2781 2 -4.3428 -5.41736 -2.61907
20 1 -4.35393 -6.00189 -3.58054
2191 1 -2.90059 -5.9614 -2.63378
2720 1 -3.33351 -5.32765 -3.06404
701 1 -1.53815 -5.66517 -2.84247
132 1 -1.39894 -5.06711 -3.29386
1377 1 -2.21728 -5.19209 -2.85195
3296 2 -2.35253 -5.89056 -3.54034
1480 1 -0.539622 -5.03512 -3.1882
3498 2 -0.472019 -6.23961 -2.77291
417 1 -6.93714 -4.63741 -2.54382
884 1 -5.18092 -4.77306 -3.12764
3572 2 -6.02944 -4.16032 -2.73328
393 1 -4.98624 -3.8742 -3.23016
931 1 -4.2975 -4.67561 -3.41976
476 1 -3.79353 -4.58463 -2.79375
1216 1 -3.13857 -4.71733 -2.57263
3276 2 -3.01624 -3.84553 -2.93158
1485 1 -3.35578 -4.4755 -3.68902
3312 2 -2.29708 -4.14336 -3.2077
1068 1 -0.71992 -4.27396 -2.69227
444 1 -0.0318532 -4.29998 -3.63729
379 1 -7.28862 -3.129 -2.97411
548 1 -6.5556 -2.58085 -3.07452
475 1 -6.85108 -3.57379 -3.09388
2814 2 -5.89485 -3.25952 -3.36218
1613 1 -4.33396 -3.57947 -3.53516
402 1 -4.82312 -2.64343 -2.99922
1711 1 -4.15053 -2.62104 -3.59302
2772 2 -3.61445 -3.50801 -2.66806
2530 1 -2.14869 -3.07079 -3.72813
3286 2 -0.900776 -3.25326 -3.20315
568 1 -0.133183 -3.74215 -2.50283
531 1 -7.1981 -2.28023 -2.5457
164 1 -7.26533 -1.66944 -3.22963
1013 1 -6.46251 -1.96829 -2.6502
43 1 -5.67607 -2.15799 -3.42458
1491 1 -5.14366 -1.86045 -2.63862
1532 1 -4.96219 -1.77782 -3.48766
388 1 -4.34469 -1.25315 -3.20716
152 1 -3.69843 -1.89766 -3.29698
2267 1 -2.85674 -2.06688 -3.2725
1159 1 -1.85753 -2.01924 -3.00506
3279 2 -0.517877 -2.39781 -3.25829
3476 2 -0.660209 -1.56295 -3.25464
448 1 -6.77333 -1.0588 -2.82992
2315 1 -6.50332 -1.20638 -3.46067
3397 2 -6.15236 -0.244376 -3.54119
3457 2 -5.48628 -0.613842 -2.9429
3219 2 -5.23338 -0.662564 -3.61387
987 1 -3.90207 -0.158953 -3.23318
1475 1 -3.97263 -0.929516 -2.63361
2714 1 -3.10885 -0.691195 -2.64264
1367 1 -1.9846 -1.12171 -2.65807
2 1 -1.47112 -1.02655 -3.50355
2539 1 -2.03486 -0.179341 -2.847
3158 2 -0.169519 -0.80582 -3.40343
2491 1 -1.06761 -0.472364 -2.73225
1056 1 -6.80035 -6.4686 -1.91187
1533 1 -6.04002 -6.70741 -2.38914
3508 2 -4.10816 -6.78597 -2.06569
3452 2 -4.8228 -7.20771 -1.82035
782 1 -3.29044 -7.10753 -1.38879
2669 1 -2.72404 -7.42735 -1.97051
721 1 -3.10327 -6.43655 -1.89194
197 1 -1.86735 -6.53092 -2.49754
3506 2 -1.79434 -7.20308 -1.61991
3070 2 -0.0905092 -6.25759 -1.98335
2687 1 -0.82419 -6.73475 -2.01639
729 1 -6.86555 -5.51218 -2.34873
2337 1 -6.27446 -5.77347 -1.56588
914 1 -5.12704 -6.06684 -1.76799
1875 1 -5.73468 -5.35748 -2.19447
947 1 -5.58911 -5.63921 -1.47776
2993 2 -3.69549 -5.11052 -1.76653
1948 1 -1.49048 -6.0138 -2.05909
1511 1 -2.3785 -5.38177 -1.96214
539 1 -1.48336 -5.04635 -2.22626
420 1 -1.02045 -5.78019 -1.3789
294 1 -0.511565 -5.2164 -1.68072
2233 1 -0.440383 -5.18352 -2.43393
1010 1 -6.32894 -4.8566 -1.62481
2214 1 -6.91571 -4.08901 -1.96481
3202 2 -7.49289 -4.86718 -1.50081
1494 1 -5.31086 -4.70696 -2.00109
867 1 -5.75948 -4.30681 -1.47488
108 1 -5.08633 -3.79913 -1.55205
1574 1 -4.43848 -4.10937 -2.16177
60 1 -4.9274 -4.9478 -1.40745
695 1 -2.5739 -4.86204 -1.3228
2613 1 -2.97903 -3.7552 -1.63465
1514 1 -3.54098 -4.21519 -1.79329
1706 1 -1.63633 -4.27303 -2.38799
2561 1 -2.38463 -4.02565 -2.00356
3339 2 -0.852129 -4.31467 -1.42461
3567 2 -0.220792 -3.98917 -1.30848
1789 1 -7.16554 -3.45666 -1.31917
148 1 -6.86696 -3.1574 -2.33605
3358 2 -5.94715 -2.80557 -1.64523
2947 2 -5.9698 -3.58699 -2.40972
2299 1 -4.76931 -2.88645 -1.27534
1206 1 -4.19044 -3.32922 -1.69793
1854 1 -4.9923 -2.93529 -2.34447
1812 1 -2.96436 -2.93933 -1.84037
1601 1 -3.55994 -2.98698 -1.42792
2045 1 -2.22032 -2.81044 -2.24028
807 1 -1.46197 -2.88219 -1.69798
818 1 -1.23146 -3.50039 -2.07877
954 1 -0.358431 -2.92182 -1.71286
3426 2 -6.50584 -2.1775 -1.57818
3154 2 -6.97271 -1.37621 -1.65183
348 1 -5.98153 -1.53711 -2.27216
1319 1 -5.017 -2.08639 -1.98496
3512 2 -4.08765 -1.88809 -2.18826
2747 2 -2.63017 -1.56134 -2.02794
2764 2 -3.16771 -1.47906 -1.5978
3050 2 -3.59575 -2.40451 -2.28833
643 1 -2.41354 -2.3048 -1.32281
2984 2 -1.55858 -1.60592 -1.65265
1258 1 -0.145027 -1.81951 -1.75058
2763 2 -1.08735 -1.95518 -2.32055
95 1 -6.89647 -0.450662 -1.65857
1956 1 -7.02056 -0.0934945 -2.28953
1785 1 -5.61861 -1.16707 -1.71298
2351 1 -6.19714 -0.38164 -1.92058
3349 2 -4.5515 -1.10648 -1.39193
2930 2 -4.8785 -0.785008 -2.09512
90 1 -3.97239 -0.350864 -2.225
648 1 -4.0507 -0.0196934 -1.50507
2410 1 -3.21598 -0.38711 -1.28954
1722 1 -1.62212 -0.0330215 -2.08694
2165 1 -2.14414 -0.649219 -1.71035
2631 1 -0.397544 -1.22701 -2.16702
835 1 -0.482597 -0.392981 -2.14437
1629 1 -1.05133 -0.479304 -1.61694
3221 2 -6.86872 -6.95868 -0.70633
1976 1 -5.73637 -6.96347 -0.969386
2332 1 -5.11677 -7.11939 -0.0653795
2487 1 -5.80849 -7.15235 -0.208253
1607 1 -4.25848 -7.25253 -0.122789
1193 1 -4.79413 -6.67329 -0.923825
753 1 -3.84652 -6.57728 -0.834678
3193 2 -2.96802 -6.85722 -0.207992
2118 1 -1.47124 -7.06365 -0.46686
3063 2 -2.21529 -6.9788 -1.14792
3238 2 -2.27975 -6.271 -0.816465
2022 1 -2.10937 -7.30457 -0.0205429
647 1 -0.831849 -6.73218 -0.92093
1765 1 -0.147173 -7.17741 -1.11647
1169 1 -6.39697 -6.06992 -0.22492
1687 1 -7.07245 -5.94018 -1.17873
3446 2 -6.02978 -5.33347 -0.492711
3363 2 -5.34603 -5.72275 -0.445482
1090 1 -4.43529 -6.04439 -0.692186
161 1 -4.09658 -5.05765 -0.568043
1300 1 -3.27027 -5.90795 -1.24261
1581 1 -3.20162 -5.48344 -0.411057
536 1 -2.57492 -5.16618 -0.194318
2609 1 -3.68592 -6.20951 -0.0181409
3147 2 -1.87775 -5.73387 -0.989035
1229 1 -0.616659 -5.56789 -0.697761
287 1 -6.93466 -4.60476 -0.273613
498 1 -6.25665 -3.78962 -1.13636
2867 2 -5.48903 -4.6919 -0.490606
2866 2 -5.83266 -4.11236 -0.0388293
2650 1 -4.28596 -3.88056 -0.864113
1838 1 -3.47141 -4.55024 -0.668689
2023 1 -2.4873 -4.39205 -0.692566
3175 2 -1.43032 -4.62264 -1.17757
1599 1 -1.48011 -4.83698 -0.198536
857 1 -1.69462 -3.95545 -0.0383845
451 1 -0.921288 -3.92145 -0.380823
817 1 -0.177151 -4.84575 -0.449316
1639 1 -6.78862 -2.97082 -0.162441
1884 1 -7.36855 -2.65358 -0.865485
2362 1 -6.81293 -3.69297 -0.592603
71 1 -5.05878 -2.75302 -0.535239
418 1 -6.04228 -3.15718 -0.574887
470 1 -5.21976 -3.6535 -0.774684
637 1 -3.93019 -2.57323 -0.837025
1653 1 -4.15539 -3.26039 -0.262603
629 1 -2.68978 -3.59063 -0.68727
894 1 -3.35312 -3.1659 -0.736341
3453 2 -2.1721 -2.7541 -0.490849
2847 2 -1.68602 -3.69484 -1.09909
2352 1 -0.934759 -2.85892 -0.975936
2015 1 -0.242313 -3.26986 -0.532334
2437 1 -6.9678 -2.08539 -0.618807
1991 1 -6.18271 -1.38722 -0.997445
1519 1 -5.23132 -1.95071 -1.12099
352 1 -6.07404 -2.07969 -0.534644
3294 2 -3.87834 -1.35133 -1.1262
1502 1 -4.63966 -1.83267 -0.38429
1142 1 -3.24737 -2.22949 -0.872488
1020 1 -2.63501 -1.73476 -0.748381
1294 1 -3.22857 -1.36764 -0.0756496
652 1 -1.45259 -1.94863 -0.362684
2263 1 -0.309592 -2.2572 -0.314138
2412 1 -0.115905 -1.29287 -0.592362
889 1 -0.674379 -1.88012 -0.915205
2073 1 -7.35755 -0.417527 -0.11239
2220 1 -7.14083 -1.22227 -0.513587
1037 1 -6.90571 -0.19027 -0.635201
266 1 -5.54757 -0.184887 -0.431232
382 1 -5.09365 -0.975657 -0.601767
615 1 -6.18714 -0.515648 -0.959647
1938 1 -4.74805 -0.573937 -0.099244
1175 1 -4.07358 -1.1365 -0.311392
1000 1 -1.83715 -0.0117612 -1.11982
307 1 -2.43939 -0.728144 -0.940882
1844 1 -1.51861 -1.14281 -0.666181
724 1 -0.976978 -0.787281 -0.147135
739 1 -0.496501 -0.96645 -1.14459
76 1 -6.93792 -6.39391 0.805649
450 1 -6.34961 -6.81023 0.176359
1441 1 -3.86089 -6.91062 0.646281
328 1 -2.94258 -6.9002 1.03976
2343 1 -2.08471 -6.83086 0.747961
1388 1 -1.38271 -6.3831 0.240838
2792 2 -0.54915 -7.46311 0.00969719
2029 1 -1.00584 -6.66109 0.906482
3310 2 -0.0304924 -6.78782 0.00509715
1072 1 -7.37558 -6.11741 0.214701
824 1 -6.546 -5.26435 0.535096
1382 1 -5.45842 -5.04681 0.488609
885 1 -5.71288 -6.00442 0.809336
1751 1 -5.82055 -5.2374 1.13932
2510 1 -4.892 -5.64933 0.748402
1031 1 -4.76848 -4.99856 1.23884
1428 1 -4.44544 -6.12999 0.35373
1964 1 -4.54224 -5.16146 0.292676
3515 2 -3.51122 -5.30229 0.811901
1317 1 -2.44472 -6.04878 0.46588
1322 1 -1.61034 -5.50928 0.355043
2628 1 -0.378031 -5.74537 0.467836
796 1 -0.699539 -5.00603 0.358857
1774 1 -6.89358 -4.20606 1.14771
442 1 -7.09249 -4.44806 0.3607
272 1 -5.87561 -4.52023 1.00382
1708 1 -4.72392 -3.98588 1.09794
74 1 -4.71268 -4.27173 0.183283
3021 2 -3.62589 -4.42265 0.597315
3410 2 -3.2483 -3.87629 0.152063
1752 1 -2.36196 -4.09339 0.193553
719 1 -2.34512 -4.948 0.683311
3263 2 -1.43642 -4.25223 0.84564
1546 1 -2.41242 -4.32353 1.06206
1214 1 -0.511974 -4.25335 0.436715
3509 2 -1.15298 -4.88514 1.22597
1809 1 -6.73155 -3.54891 0.177497
1096 1 -6.93578 -2.50761 0.705618
3465 2 -5.55633 -3.33337 0.436175
2645 1 -4.6516 -2.68457 0.932786
508 1 -4.30273 -3.47373 0.549787
3020 2 -3.41045 -3.47655 0.917817
3540 2 -1.7726 -2.9983 0.629616
3564 2 -1.17479 -3.38968 1.20431
2148 1 -0.434966 -3.38133 0.650044
1709 1 -0.91506 -2.90245 0.115525
1721 1 -0.103002 -2.8844 1.2412
2109 1 -7.01403 -1.50707 0.661273
3318 2 -5.711 -2.47585 0.559686
3232 2 -5.61508 -1.66397 0.259368
1112 1 -4.34909 -1.78801 0.528483
2430 1 -4.19885 -2.43807 0.0784042
1016 1 -3.33454 -2.36674 0.502957
2339 1 -2.48846 -1.99804 0.693229
2739 2 -1.57233 -2.22768 0.907706
2667 1 -0.818293 -1.5795 0.472453
59 1 -0.458261 -2.25004 0.912868
1 1 -7.36463 -0.195789 0.605449
3414 2 -6.26205 -1.11695 0.0485578
1051 1 -6.64705 -0.167282 1.18817
3089 2 -6.12424 -0.441549 0.431625
3514 2 -5.7811 -1.05133 0.756608
2025 1 -4.55156 -1.17231 1.01028
337 1 -4.95682 -0.0559787 0.716637
3482 2 -2.76537 -0.535728 0.266196
2841 2 -3.42547 -1.24201 1.10841
3455 2 -3.16011 -0.554137 1.06846
3306 2 -3.70815 -0.48172 0.478438
2554 1 -2.13541 -0.249721 1.23791
994 1 -1.63476 -1.22549 0.486729
1605 1 -1.35135 -0.406508 0.705912
2509 1 -0.337526 -0.217994 0.266349
3038 2 -0.00471255 -1.14857 0.824754
3429 2 -6.70031 -6.36694 2.23948
202 1 -5.8462 -6.60978 1.51657
2894 2 -4.95816 -6.77495 1.54238
480 1 -3.95306 -6.60557 2.44861
366 1 -3.91197 -7.30231 1.30842
2161 1 -3.39048 -7.09709 1.89832
146 1 -1.94581 -6.87596 1.59154
110 1 -0.235007 -6.29829 2.46124
2353 1 -1.19322 -6.71965 2.40032
3013 2 -0.33652 -7.47773 2.45286
2579 1 -0.609391 -6.91192 1.69932
397 1 -6.33916 -5.19415 2.19113
3072 2 -7.00715 -5.73022 1.32905
2622 1 -5.35156 -5.84742 2.40353
378 1 -4.10179 -5.59699 2.44732
3590 2 -3.77002 -6.01635 1.33795
3485 2 -4.51707 -6.06439 1.62668
2331 1 -3.39744 -5.1915 1.94442
2083 1 -2.55662 -6.22045 1.66773
73 1 -2.36737 -5.27104 1.54156
3463 2 -1.54915 -5.89857 1.43674
2731 1 -2.28246 -6.1128 2.4294
3388 2 -0.72983 -5.41578 1.70133
269 1 -7.10051 -4.42495 1.83518
3058 2 -5.25463 -4.86808 2.17636
2935 2 -5.84305 -4.29456 2.22239
2075 1 -4.19752 -4.6893 2.26184
1626 1 -4.78519 -3.8445 2.18652
2655 1 -2.84913 -4.47756 1.64307
1152 1 -3.60515 -4.20038 2.1105
2924 2 -1.42643 -4.07229 1.6779
313 1 -2.00973 -4.76667 2.05726
280 1 -0.783841 -4.30665 2.37593
241 1 -0.221158 -4.12775 1.49216
2360 1 -6.3193 -3.64151 1.2501
3044 2 -7.32638 -3.58991 2.45093
1871 1 -6.78742 -2.56963 1.58871
3300 2 -6.48364 -3.29703 2.39461
2454 1 -5.50101 -2.52808 1.68138
1515 1 -5.413 -3.41333 1.52977
1106 1 -4.39726 -2.59432 2.05665
87 1 -4.39399 -3.33153 1.56493
2221 1 -2.53505 -3.5976 1.52765
184 1 -3.32014 -2.77642 2.33309
917 1 -2.39629 -2.64066 1.8274
1972 1 -2.19759 -3.74678 2.22194
3369 2 -0.789225 -3.20086 2.40274
1630 1 -6.26088 -2.04182 1.50792
2026 1 -6.50666 -1.96534 2.32318
1191 1 -5.48727 -1.42503 1.83182
149 1 -4.80947 -1.99643 1.38151
3504 2 -3.97173 -1.46779 1.9056
2749 2 -3.54999 -2.22019 1.40561
1461 1 -2.45889 -1.60969 1.3036
2106 1 -1.26417 -2.37955 2.13163
1323 1 -0.855203 -1.38988 1.865
2573 1 -0.466406 -2.24267 1.89964
3443 2 -7.01145 -0.199506 2.25517
2379 1 -6.48848 -1.17665 1.29484
1225 1 -5.21964 -0.625141 1.68219
293 1 -5.92644 -0.361356 1.9993
1904 1 -4.28202 -0.365617 1.38053
1479 1 -2.81383 -1.14567 2.11942
2141 1 -3.36885 -0.419198 2.24345
1203 1 -2.64281 -0.110834 1.93752
2153 1 -1.67649 -1.10571 1.59031
1717 1 -0.955434 -0.282615 1.43443
3118 2 -6.28637 -6.2763 3.06283
3271 2 -7.39393 -6.87283 3.70973
2782 2 -6.32228 -7.19819 2.7979
3407 2 -6.9183 -7.20911 3.34333
3541 2 -5.26422 -6.35607 3.51526
1566 1 -5.42733 -6.8458 2.63019
560 1 -4.98066 -7.1893 3.56461
1208 1 -3.86748 -6.92966 3.32799
1869 1 -4.62326 -7.18304 2.6198
2538 1 -3.1009 -6.42325 3.59014
1766 1 -2.56395 -7.26776 3.60243
218 1 -2.89903 -6.81818 2.56178
458 1 -1.97198 -6.57384 3.13587
2232 1 -1.91439 -7.30238 2.79905
2012 1 -1.23483 -7.48856 3.44625
3431 2 -0.0554818 -7.0955 3.29446
953 1 -7.1522 -5.48601 2.58764
1922 1 -5.60395 -5.62121 3.07091
3060 2 -4.43254 -6.11512 3.3442
226 1 -3.37002 -5.98452 2.69286
2963 2 -2.57111 -5.19366 2.90615
204 1 -3.48536 -5.36136 3.44545
905 1 -1.58759 -5.47222 2.50321
2304 1 -1.56181 -5.40901 3.74529
2486 1 -2.32223 -5.87131 3.57859
936 1 -0.852279 -5.74557 2.63055
21 1 -0.841894 -5.10456 3.35931
2523 1 -7.1066 -4.13722 3.44114
403 1 -6.2736 -4.69001 3.66073
1743 1 -6.39941 -3.87966 3.67333
2463 1 -6.74679 -4.81329 2.93832
354 1 -5.57637 -4.56242 3.44438
1316 1 -5.19378 -3.75937 3.21127
3110 2 -3.94999 -4.1215 3.42703
1156 1 -4.17955 -4.96668 3.01452
599 1 -4.91838 -4.79534 3.23628
3031 2 -3.09531 -4.509 3.13919
2218 1 -1.43277 -4.27368 3.64063
33 1 -1.55418 -4.57469 2.84033
3035 2 -2.39771 -4.00087 3.14331
406 1 -0.793176 -3.93473 3.22733
862 1 -0.160912 -4.92955 2.51325
346 1 -7.34537 -2.59724 2.7964
198 1 -7.12884 -3.35791 3.56057
22 1 -7.02544 -2.59565 3.73497
3049 2 -5.66658 -2.69623 2.9294
2685 1 -4.4756 -2.77707 3.58375
216 1 -4.20484 -3.11656 2.78504
1039 1 -3.63726 -2.79699 3.64393
731 1 -2.66589 -2.56246 3.56975
3129 2 -3.15012 -3.66051 2.85484
3235 2 -1.94919 -2.98546 3.03312
3445 2 -1.24454 -2.80315 3.34705
2934 2 -0.333341 -2.8772 3.35965
1769 1 -6.45396 -2.04598 3.29095
2251 1 -5.79839 -1.38442 2.99675
634 1 -5.34166 -1.44514 3.54052
1757 1 -3.88233 -2.36457 2.83608
2414 1 -4.80778 -1.96142 2.77873
2157 1 -4.49741 -1.59967 3.39761
2549 1 -3.68346 -1.62391 3.47651
2594 1 -3.19051 -1.73195 2.7281
1927 1 -2.75794 -1.51662 3.62659
2282 1 -2.22142 -1.61831 2.76713
1460 1 -1.70941 -1.88403 3.41219
69 1 -0.118263 -1.98406 2.55262
1913 1 -1.12791 -1.66676 2.80527
351 1 -0.517092 -1.89226 3.63943
2445 1 -7.0519 -0.67003 3.42615
904 1 -6.68965 -1.1737 2.51886
1015 1 -6.27614 -0.606328 3.0731
447 1 -5.25012 -0.552568 3.69953
1506 1 -4.21125 -0.780422 3.71923
2734 2 -4.45302 -1.10156 2.57215
2826 2 -4.67342 -0.357892 2.53766
175 1 -3.11227 -0.837174 2.98631
232 1 -3.64397 -0.245617 2.96539
1538 1 -3.44345 -0.65849 3.68981
2990 2 -2.21696 -0.437222 2.87796
3581 2 -1.42866 -0.537124 2.60385
2370 1 -1.65554 -1.14602 3.49033
1163 1 -0.128056 -0.924761 2.67419
504 1 -0.697326 -1.10585 3.70366
1478 1 -0.654774 -0.149631 3.66564
1787 1 -6.48725 -6.50895 4.19224
597 1 -5.85708 -7.208 3.97802
2569 1 -5.19777 -6.62237 4.3983
2837 2 -3.92175 -6.26489 4.28494
2019 1 -4.50212 -7.43678 4.20801
1636 1 -3.20541 -7.46287 4.87944
1095 1 -2.62994 -6.9251 4.38699
3112 2 -3.73993 -6.43134 4.92759
927 1 -3.4759 -7.49023 4.05036
2832 2 -1.54123 -7.12732 4.4426
2909 2 -1.47406 -6.3913 4.16785
1366 1 -0.0656792 -6.84418 4.76624
3269 2 -0.550439 -6.75156 3.8576
1091 1 -7.0713 -5.96663 4.51689
2264 1 -6.3903 -5.56371 3.76974
2662 1 -5.42613 -5.41343 4.25172
2040 1 -5.68994 -5.91849 4.8644
162 1 -4.59265 -5.30419 4.83849
111 1 -4.06095 -5.04955 4.32693
737 1 -4.97711 -5.46648 3.77442
1968 1 -2.88693 -5.3318 4.27897
1568 1 -2.723 -6.21141 4.91422
2800 2 -1.83801 -5.84335 4.73023
1049 1 -0.216443 -5.82013 4.00065
2447 1 -0.53902 -5.39462 4.44541
2254 1 -0.48789 -5.97294 4.87162
3229 2 -6.55264 -4.85919 4.68628
3386 2 -7.40946 -4.64781 4.33945
3404 2 -5.31959 -4.47997 4.63986
3542 2 -4.66237 -3.8461 4.05763
2436 1 -3.24024 -4.27577 4.19685
700 1 -2.60993 -3.8243 4.46136
2897 2 -1.76691 -4.54526 4.84574
1878 1 -2.21933 -4.92587 3.9987
1578 1 -0.991425 -4.82051 4.13014
1534 1 -0.394796 -4.25921 4.69201
1586 1 -6.74846 -3.61785 4.44296
1183 1 -6.90184 -2.70428 4.67901
2320 1 -6.01323 -3.00662 3.94633
1334 1 -5.30624 -2.74647 4.08099
409 1 -5.69462 -3.57847 4.58957
2819 2 -4.54462 -3.4852 4.80603
8 1 -3.17074 -2.96479 4.92799
1989 1 -3.64016 -3.40939 4.16242
1560 1 -2.61756 -3.13175 4.01617
3384 2 -2.08457 -2.77761 4.89703
362 1 -1.89836 -3.54037 4.00187
1029 1 -1.05063 -2.85613 4.52197
1116 1 -0.00612504 -2.86222 4.42754
1102 1 -1.08241 -3.57763 4.17708
79 1 -0.402108 -3.47018 4.77421
856 1 -6.84474 -1.52673 3.82475
2649 1 -7.02826 -1.76954 4.76649
2139 1 -6.07456 -2.13042 4.08469
1263 1 -4.98835 -1.74752 4.42257
211 1 -3.84537 -2.32736 4.05949
2441 1 -3.30155 -1.97526 4.24452
2506 1 -1.27404 -1.56003 4.14301
3343 2 -2.18759 -2.05256 4.41462
1681 1 -0.988155 -2.16069 4.52538
2753 2 -6.51632 -0.661007 4.48187
2599 1 -6.68687 -0.0653955 3.80944
3272 2 -6.02272 -1.17762 4.40052
3377 2 -4.29368 -1.18763 4.7097
1057 1 -4.6576 -0.224825 4.08146
3225 2 -3.67685 -0.814021 4.89103
3366 2 -2.93627 -0.901017 4.63381
2767 2 -2.1576 -0.404251 4.30455
1988 1 -1.27661 -0.598507 4.06382
3501 2 -2.25417 -1.08791 4.60043
2194 1 -7.1797 -6.32193 5.66887
703 1 -6.51838 -6.99696 5.13215
2928 2 -5.41819 -7.13186 5.32448
2125 1 -5.98644 -6.69547 6.01302
966 1 -4.0057 -7.16078 6.13311
1170 1 -4.85582 -6.29034 5.34397
2177 1 -4.15306 -7.38335 5.31176
308 1 -4.53775 -6.45001 6.14656
3262 2 -2.71318 -7.11606 6.16724
1642 1 -1.96135 -6.26429 5.79654
596 1 -2.41849 -6.92097 5.22972
369 1 -1.09152 -7.0189 5.61333
2060 1 -0.22223 -7.21678 5.98089
7 1 -7.27663 -5.4134 5.41978
577 1 -6.44095 -5.5095 5.51839
1960 1 -4.90296 -5.27768 5.65027
3382 2 -3.98236 -5.8166 5.49106
3037 2 -3.94891 -5.13732 6.161
1987 1 -2.86041 -5.97568 5.74881
2674 1 -3.14473 -5.26864 5.0309
3198 2 -1.57543 -5.22708 5.204
130 1 -2.24776 -5.32013 5.94977
1341 1 -1.39915 -5.61009 6.17168
240 1 -0.60464 -5.03775 5.66389
553 1 -0.947113 -6.12351 5.77245
410 1 -6.67759 -4.73842 5.77139
2444 1 -7.30666 -4.07749 5.54533
1030 1 -6.41626 -3.90983 5.26538
1870 1 -5.93544 -4.31043 6.01423
2895 2 -5.7796 -4.8805 5.11025
2434 1 -4.13113 -3.87433 5.86667
1680 1 -4.8504 -4.57192 5.9564
5 1 -4.1254 -4.5808 5.04498
2723 1 -2.69588 -4.60668 5.26502
1079 1 -3.39295 -3.84275 5.30129
2870 2 -3.24794 -4.74743 6.10753
559 1 -0.0234841 -4.73102 5.12648
3094 2 -1.2318 -4.13655 5.36493
3416 2 -6.5365 -3.30545 6.11374
2921 2 -6.36106 -2.65303 5.75571
2668 1 -5.54268 -3.04251 5.35964
1521 1 -5.4073 -3.68286 5.77618
2940 2 -4.41872 -2.64395 5.01901
523 1 -2.79275 -2.65592 5.79453
1587 1 -3.68981 -2.65761 5.69155
3201 2 -1.56849 -3.38379 5.14359
1038 1 -1.47633 -3.32267 6.22968
2882 2 -1.43874 -2.51448 5.68507
3255 2 -2.26032 -3.48414 5.56268
1505 1 -0.0533548 -3.55399 5.52675
2915 2 -0.544373 -2.59664 5.37508
705 1 -7.08257 -1.55229 5.73606
205 1 -5.15387 -2.24284 5.56533
2334 1 -6.23325 -1.41164 5.44377
1931 1 -5.3817 -1.42473 5.35589
736 1 -4.07707 -1.67843 5.59631
1352 1 -2.93748 -1.90926 5.36658
170 1 -1.4867 -1.37814 5.0012
1740 1 -2.08841 -1.63449 5.76411
2688 1 -0.720709 -1.37389 5.65045
2099 1 -7.31395 -0.854824 5.39369
2004 1 -6.57348 -0.578977 5.72588
975 1 -5.41197 -0.784344 5.7851
2719 1 -4.74736 -0.304362 5.59151
1793 1 -4.06335 -0.0613285 6.1992
2431 1 -3.02414 -0.868576 5.86697
1331 1 -1.50176 -0.595469 5.37009
1701 1 -2.31048 -0.549233 5.7769
2526 1 -7.2509 -6.71083 7.17827
1083 1 -6.54137 -7.14041 7.15049
123 1 -7.09999 -6.70666 6.36754
100 1 -5.68403 -7.1048 7.13281
1969 1 -5.01745 -7.23253 6.25722
507 1 -6.17186 -7.46581 6.41162
1103 1 -4.75364 -6.79302 7.11011
1085 1 -2.62656 -6.2471 7.2422
704 1 -3.3229 -6.27804 6.5374
1266 1 -3.74288 -6.72943 6.97326
3396 2 -1.87181 -6.99928 6.68839
3323 2 -1.18111 -6.87354 6.90959
2268 1 -0.386616 -6.51561 6.7379
2796 2 -6.58976 -5.72144 6.7881
3239 2 -7.40008 -5.40216 6.6842
1171 1 -5.48493 -6.22791 6.46081
3438 2 -6.07923 -6.14409 7.39995
806 1 -5.46012 -5.28865 6.3052
181 1 -5.18213 -5.3904 7.24082
1588 1 -4.66479 -5.99983 6.83817
3315 2 -3.82135 -5.35619 6.92408
762 1 -2.54193 -5.27555 7.1041
2223 1 -2.88065 -5.65505 6.51725
2415 1 -2.15429 -5.98923 6.69441
1565 1 -0.252443 -5.02586 6.83043
2311 1 -0.338331 -5.42713 6.29621
2273 1 -0.883387 -5.66707 6.86601
248 1 -0.0077839 -5.69567 7.25854
2110 1 -6.72738 -4.5926 7.03262
2413 1 -6.43215 -3.80793 7.36964
812 1 -7.42882 -3.97686 7.00682
213 1 -5.79329 -4.76075 7.20359
1324 1 -5.68963 -3.9195 6.7521
2212 1 -4.52667 -4.05465 6.75433
908 1 -4.79128 -4.64801 7.29696
3335 2 -3.42865 -4.31096 6.72276
1671 1 -2.62913 -4.17953 7.3986
265 1 -2.20224 -3.96096 6.35614
858 1 -2.32221 -4.74149 6.76219
2877 2 -1.25682 -4.45002 6.25763
1851 1 -1.89662 -3.76396 7.10139
2803 2 -1.18036 -4.82423 7.1499
2880 2 -1.02476 -3.93133 7.33062
3184 2 -7.19098 -3.02454 6.6159
1962 1 -6.21798 -2.98805 7.38446
1006 1 -5.65232 -2.98837 6.90649
1425 1 -4.92011 -2.95032 6.36829
483 1 -4.11572 -3.1967 6.27517
1181 1 -4.82986 -3.33395 7.12436
3573 2 -3.02975 -3.56989 6.50663
2810 2 -3.65972 -2.64256 7.24831
1119 1 -1.51612 -2.9549 6.94454
310 1 -2.27224 -2.69909 6.48014
154 1 -0.333647 -2.5716 6.63813
2883 2 -0.477893 -3.7245 6.69269
300 1 -6.5686 -2.19527 7.40373
26 1 -6.94764 -2.08803 6.73059
718 1 -5.69289 -2.00711 6.90763
503 1 -6.02737 -1.91775 6.2552
3144 2 -4.6947 -1.30931 6.77261
3234 2 -4.31791 -2.22686 6.69966
969 1 -3.26518 -1.61431 7.31799
263 1 -2.76946 -2.08358 7.365
2528 1 -2.96745 -2.1328 6.29756
1720 1 -3.49658 -1.58089 6.36558
1936 1 -1.84892 -2.12218 6.89376
1392 1 -1.32214 -1.81385 6.42512
763 1 -2.41056 -1.27729 6.36504
124 1 -0.320567 -1.8066 6.39723
1624 1 -0.862664 -2.36954 7.47007
3124 2 -6.49451 -1.05184 6.64788
3468 2 -7.19291 -0.818356 7.37357
1570 1 -7.43445 -0.377788 6.33769
3338 2 -5.55694 -0.813635 6.86019
1488 1 -3.90406 -0.213408 7.3431