ITEM: TIMESTEP
10500
ITEM: NUMBER OF ATOMS
2048
ITEM: BOX BOUNDS pp pp pp
-5.9392331375829537e+00 5.9392331375829537e+00
-5.9392331375829537e+00 5.9392331375829537e+00
-5.9392331375829537e+00 5.9392331375829537e+00
ITEM: ATOMS id type x y z 
1002 1 -5.76674 -5.8337 -5.85793 
1192 2 -5.35386 -4.45473 -5.3777 
1358 2 -5.17566 -5.06498 -4.35208 
440 1 -5.74367 -5.54857 5.18684 
412 1 -4.95162 -5.47253 -5.67714 
825 1 -4.48144 -5.66234 -4.70741 
91 1 -2.94069 -4.85426 -5.3324 
333 1 -3.74105 -5.33552 -5.1662 
1542 2 -2.45298 5.83797 -4.83476 
1291 2 -1.99292 -5.48329 -5.8372 
1035 2 -0.943657 -5.10576 -5.45734 
1334 2 -0.482309 -5.1742 -4.63164 
1429 2 0.215682 -4.87297 -5.16208 
495 1 0.352144 -5.71112 5.8671 
1694 2 -0.297832 -4.94756 -5.95272 
822 1 1.2055 -5.37508 5.72411 
135 1 2.3414 -5.03153 5.86284 
648 1 1.85038 -5.34104 -5.23098 
723 1 2.78565 -4.93079 -5.31107 
64 1 3.90695 -4.73042 -4.63574 
1677 2 3.52652 -5.57302 5.72778 
809 1 4.62612 -4.68206 -4.24077 
1272 2 5.80387 -4.93677 -5.17542 
1799 2 5.06738 -5.20934 -5.76511 
1875 2 4.9683 -5.42622 -4.94009 
1849 2 5.9904 -4.63793 5.7445 
273 1 -5.18574 -3.76035 -4.61853 
991 1 -4.5468 -3.09747 -5.34288 
223 1 5.70855 -3.623 -5.47174 
1548 2 -3.70961 -4.25852 -4.91306 
1663 2 -3.66996 -3.81494 -5.70059 
2016 2 -4.47337 -4.37195 -5.60585 
1261 2 -2.97001 -3.79745 -4.81354 
1711 2 -1.88354 -3.17447 -5.51486 
855 1 -1.13218 -4.42766 -4.77327 
2009 2 -2.1328 -3.46216 -4.70006 
1004 1 -1.55013 -4.05349 -5.62861 
416 1 -0.544792 -3.91236 -5.46958 
227 1 -0.134838 -4.02642 -4.64431 
924 1 -0.151168 -3.42102 5.45877 
819 1 0.20494 -3.50624 -5.69246 
1746 2 0.583773 -4.41138 5.86983 
1790 2 2.02547 -4.13808 -5.40573 
1709 2 1.11332 -4.55051 -5.33054 
1129 2 2.56545 -4.19439 -4.63061 
1232 2 2.48107 -3.91944 5.69283 
429 1 4.31359 -4.33625 -5.49772 
1995 2 4.21777 -3.31828 -5.16544 
1475 2 3.55196 -3.79023 -4.63491 
75 1 5.08427 -3.99928 -5.81992 
1937 2 -5.3253 -2.55592 -4.73422 
1588 2 -5.31395 -2.16804 -5.62723 
218 1 -4.1124 -3.14238 -4.72443 
1745 2 -4.36428 -2.35219 -4.25608 
269 1 -3.89622 -2.7382 -5.71739 
391 1 -2.65967 -2.19187 5.78825 
402 1 -3.18223 -2.64375 -5.26024 
196 1 -2.3771 -2.43337 -4.50888 
151 1 -2.30562 -2.07154 -5.25699 
1379 2 -1.1247 -3.06952 -5.02436 
1255 2 -0.344077 -2.54729 -5.34434 
1909 2 0.586963 -2.39569 -5.21644 
1555 2 0.798835 -2.67391 -4.43966 
1581 2 -1.28113 -3.4741 -4.32184 
1763 2 -0.213406 -2.96293 -4.54992 
939 1 1.92265 -3.03019 -5.69647 
202 1 1.06796 -3.1541 -5.81957 
1525 2 1.50079 -2.04439 -5.16844 
169 1 2.49271 -2.52154 5.65026 
475 1 2.70622 -2.84991 -5.01103 
975 1 3.26741 -2.02755 5.43288 
485 1 3.59065 -2.5112 -4.73667 
1070 2 3.71891 -3.33168 -5.8107 
609 1 4.34057 -2.01402 -5.27094 
779 1 3.31935 -2.38516 -5.55578 
1929 2 4.3029 -2.95152 5.82484 
1465 2 5.88732 -2.64287 -5.32934 
730 1 -5.08253 -0.714243 5.88757 
214 1 -3.75139 -0.746525 -4.84577 
1341 2 -4.28011 -1.70693 -5.79565 
1733 2 -3.71231 -1.69536 -5.11556 
505 1 -3.14643 -0.278634 -5.29898 
1809 2 -2.90567 -1.27897 -5.51504 
1569 2 -2.38043 -0.892126 -5.87605 
1908 2 -1.97103 -1.18409 -4.95859 
1478 2 -1.21632 -0.815637 -4.90069 
1345 2 -1.64553 -0.579902 -5.89228 
387 1 -1.33436 -1.89002 -5.22804 
595 1 -0.909317 -1.38797 5.74534 
556 1 0.240695 -1.2577 -5.41645 
578 1 0.823448 -0.986402 5.92219 
1964 2 1.86207 -1.50326 -5.88904 
768 1 1.35212 -0.668882 -5.64899 
560 1 1.72637 -1.02672 -4.85471 
1190 2 2.34693 -1.95458 -5.18073 
1775 2 2.92862 -1.50245 -4.99581 
1224 2 3.56136 -1.07839 -5.45203 
2036 2 3.98418 -1.21949 -4.69552 
543 1 -5.75336 -1.20135 -5.46651 
771 1 5.0392 -1.57703 -5.65479 
740 1 5.48308 -1.67631 -5.02024 
1623 2 4.59515 -0.830842 -5.12996 
1830 2 -5.92192 -0.168832 -5.33543 
1498 2 -5.17509 0.278982 -5.58345 
2028 2 -4.22963 0.486459 -5.36602 
932 1 -4.40562 -0.69613 -5.38042 
55 1 -3.78651 -0.223055 5.92384 
701 1 -2.42332 -0.314549 -4.52472 
374 1 -2.3068 0.194469 -5.32656 
1184 2 -3.43829 0.664614 -5.06331 
1414 2 -0.928061 -0.230607 -5.79636 
212 1 -1.55465 0.642709 -5.62769 
749 1 -1.55965 0.31612 -4.78206 
1572 2 -0.429068 -0.512685 -5.04077 
1171 2 0.380966 0.00138506 -5.37915 
1573 2 1.05114 0.0192256 -4.75732 
1963 2 0.949328 0.429443 -5.88357 
1223 2 1.74958 0.476505 -5.15092 
31 1 2.14751 -0.36995 -5.55104 
866 1 2.52755 -0.720593 -4.72095 
700 1 3.63427 -0.290406 -4.49413 
469 1 4.33488 0.145172 -4.8677 
2001 2 5.42379 -0.612699 -4.79278 
818 1 5.80387 0.669325 -4.78498 
1634 2 5.15835 -0.381803 -5.61433 
420 1 -5.60244 1.12544 -5.41821 
656 1 -5.16708 1.59043 -5.8804 
338 1 -4.66124 1.4855 -5.16504 
752 1 -3.96713 1.88427 -5.80144 
820 1 -3.08935 2.18818 -5.2945 
1643 2 -3.04377 1.12013 -5.64769 
1050 2 -1.40765 1.75846 -5.61194 
1736 2 -2.38847 1.16434 -5.1619 
1054 2 -1.52395 1.41411 -4.74139 
827 1 -0.78339 0.48921 -4.87517 
408 1 0.637535 1.33343 -5.50577 
829 1 -0.646644 0.928536 -5.73848 
380 1 2.18976 1.89425 -5.29352 
254 1 1.31354 1.53614 -4.99262 
551 1 1.50199 1.89264 -5.87682 
1180 2 2.05046 1.00201 5.75423 
1470 2 2.76809 0.96012 -5.38674 
1011 1 3.43052 2.08901 -4.67651 
1910 2 3.58292 1.08734 -4.93164 
1172 2 4.30998 1.00313 -4.20885 
1845 2 4.13256 1.65419 -5.45228 
319 1 5.50515 1.14342 -5.88987 
302 1 5.03028 0.56145 -5.27032 
1204 2 4.75533 1.48135 -4.89225 
1431 2 -5.72434 2.28337 -5.19221 
1403 2 -5.25827 2.65604 -5.71556 
1716 2 -5.07599 2.21382 -4.72528 
1620 2 -4.49887 2.65294 -5.21553 
1482 2 -3.79798 2.66623 -4.71756 
264 1 -2.40614 2.69904 5.82724 
1015 1 -2.10151 2.35889 -5.10835 
1175 2 -2.74621 3.12729 -4.81955 
1063 2 -0.695476 1.93046 -5.25998 
494 1 -1.62549 2.89976 -5.73421 
710 1 -0.850487 3.1298 -5.48076 
982 1 -1.35127 2.58804 -4.8155 
1884 2 0.023173 2.25484 -5.43017 
1298 2 0.382385 2.65569 5.62255 
1506 2 0.978473 2.78923 -5.71198 
1628 2 1.56697 2.8326 -5.1561 
1653 2 0.786203 2.36401 -4.77084 
895 1 2.92505 2.23263 -5.43932 
1979 2 2.71199 3.26492 -5.03958 
63 1 2.39671 2.37761 5.63311 
894 1 3.82419 1.86624 -3.91804 
621 1 3.7945 2.67702 -5.1885 
171 1 4.26258 2.25352 -4.5649 
396 1 4.66627 2.80327 -5.04358 
1396 2 5.20924 2.01278 -5.39946 
726 1 5.3911 2.99599 -4.75396 
178 1 5.28 3.1726 -5.64069 
923 1 -4.92066 3.66746 -5.00689 
1349 2 -5.69774 4.47996 -4.49465 
644 1 -5.4953 3.74234 -5.79701 
204 1 -5.82643 3.36514 -5.12327 
797 1 -4.04624 3.94193 -4.89648 
45 1 -4.70522 4.10818 -5.70268 
509 1 -3.96452 4.43127 -5.67025 
1869 2 -3.58448 3.1694 -5.37676 
1096 2 -2.74821 3.55199 -5.71858 
1824 2 -2.08708 3.59372 -5.22149 
1161 2 -1.15443 4.12712 -5.30868 
1926 2 -0.305287 4.22286 -5.12757 
561 1 0.133824 3.48718 -5.5212 
1039 2 0.447838 4.50218 -4.6352 
815 1 0.91071 3.66765 -5.00789 
716 1 1.65413 3.80801 -4.63035 
415 1 1.94133 4.16862 -5.48127 
1130 2 2.01492 3.25181 -5.76944 
777 1 2.54036 4.65603 -5.7092 
946 1 3.22894 4.79886 -5.23606 
1274 2 3.41473 3.6492 -5.3332 
1342 2 4.01096 4.06029 -5.65761 
1640 2 5.86043 4.26547 -5.12529 
1779 2 4.87649 4.04307 -5.2015 
1670 2 -5.77303 4.77235 -5.73807 
1048 2 -5.10079 4.89169 -5.09083 
435 1 -5.46503 5.89777 -4.82615 
1413 2 -4.4323 4.81678 -4.60154 
1353 2 -4.15482 5.44861 -5.31177 
1526 2 -3.28647 5.56018 -5.11298 
1757 2 -1.89673 5.73054 -4.25115 
577 1 -2.42174 4.59236 -4.8204 
755 1 -3.10922 4.55903 -5.37514 
729 1 -2.17907 5.0111 -5.4809 
17 1 -1.69191 4.31738 -3.45229 
632 1 -1.64747 4.63322 -4.14159 
687 1 -1.55427 4.95146 -4.94632 
123 1 -0.383196 5.66093 -5.41264 
82 1 -0.738748 5.06246 -4.7989 
1145 2 -0.813547 4.55764 5.90593 
1354 2 0.279419 4.91685 -5.44922 
1033 2 1.08831 4.95515 -5.50435 
503 1 0.853753 -5.76598 -5.3894 
1032 2 1.45873 5.40797 5.73433 
1193 2 1.76749 5.2283 -5.10078 
1846 2 3.02433 -5.90311 -5.58293 
501 1 4.14803 4.97857 -5.03709 
48 1 3.5965 5.12043 -5.90207 
1244 2 4.1545 -5.8031 -5.10504 
407 1 5.70575 5.59243 -5.29464 
318 1 4.92129 5.37126 -5.62625 
1394 2 -4.70066 -5.23884 -3.66696 
1312 2 -5.45507 -5.51783 -3.5178 
1285 2 -4.44601 -5.35775 -2.76574 
14 1 -3.52806 -5.56212 -4.27323 
1079 2 -4.10902 -4.75678 -3.69367 
473 1 -4.24584 5.74134 -3.86974 
255 1 -3.202 -5.5988 -3.48956 
1008 1 -2.54148 -5.20115 -3.86179 
805 1 -2.78696 -5.08541 -4.57234 
508 1 -1.9494 -4.89181 -4.46713 
247 1 -2.06091 -4.46493 -5.26222 
274 1 -1.20354 -4.81693 -3.88348 
453 1 -0.824756 -4.93536 -3.11733 
1151 2 -1.67187 -5.64617 -4.94503 
1029 2 -1.03788 -5.74837 -4.36002 
1260 2 0.172492 -5.28556 -4.1531 
1338 2 0.612208 -5.46171 -3.2493 
1486 2 0.870468 -4.94574 -4.44067 
667 1 2.26798 -5.39589 -4.50449 
57 1 2.82664 -5.62871 -3.5713 
131 1 3.72062 -5.26471 -3.51315 
49 1 3.25317 -5.16554 -4.5689 
1604 2 5.70376 -5.35774 -4.24626 
19 1 4.89929 -4.239 -4.9217 
847 1 4.58532 -4.99839 -3.4783 
878 1 -5.68114 -4.17728 -4.04952 
496 1 5.3636 -4.45 -3.95819 
1418 2 -4.49702 -4.54708 -4.74324 
798 1 -4.40752 -3.87195 -3.21258 
483 1 -4.56386 -3.80478 -4.05023 
1477 2 -3.2503 -4.21692 -4.08361 
1807 2 -2.87365 -4.53264 -3.2741 
1452 2 -2.32539 -4.0397 -4.04789 
1402 2 -2.08733 -4.26155 -3.27489 
902 1 -0.46376 -4.24965 -3.9102 
1280 2 -1.43091 -3.83899 -3.53287 
467 1 0.480369 -4.1456 -3.89369 
1370 2 -0.575256 -3.34107 -3.66202 
326 1 0.00660348 -4.60666 -3.33683 
413 1 0.792014 -3.54856 -4.97853 
782 1 1.25063 -4.07521 -3.2929 
122 1 1.26522 -3.74197 -4.16633 
1737 2 1.73703 -4.49552 -4.5307 
1836 2 3.19407 -4.32753 -3.89162 
694 1 2.48352 -3.21723 -4.16412 
1678 2 2.3173 -4.66261 -3.83784 
1198 2 2.84327 -4.73908 -3.1442 
2010 2 4.28344 -3.76555 -4.04463 
1655 2 4.86976 -3.15027 -4.47875 
1844 2 3.72688 -4.199 -3.29085 
339 1 5.7741 -3.93346 -4.73863 
1767 2 4.49225 -3.96329 -3.26133 
1201 2 5.09627 -3.45002 -3.72692 
1657 2 5.74809 -2.89785 -4.59783 
1871 2 -5.80739 -3.10042 -3.87327 
1817 2 5.91683 -3.6348 -3.04619 
524 1 -3.70975 -3.44991 -3.80463 
1911 2 -5.01382 -2.81111 -3.95544 
2007 2 -4.13358 -2.48101 -3.49059 
664 1 -3.34875 -2.88957 -4.38321 
236 1 -2.7355 -3.08639 -3.7739 
657 1 -1.95188 -2.85887 -3.73158 
573 1 -1.75742 -3.01021 -2.89894 
597 1 -1.35853 -2.22805 -4.50587 
1006 1 -1.16683 -2.43634 -3.73906 
1645 2 0.224939 -3.10494 -3.72248 
1083 2 1.6305 -2.42612 -4.42412 
1982 2 1.18336 -2.87512 -3.51084 
1676 2 2.10251 -2.4199 -3.57691 
136 1 1.75351 -3.32738 -4.83635 
277 1 3.47969 -3.02665 -4.00173 
1326 2 3.19834 -2.09024 -3.40926 
904 1 5.04627 -2.07057 -4.63678 
999 1 4.29117 -2.57707 -4.05937 
2032 2 4.85476 -2.89478 -5.52431 
784 1 4.89081 -2.42343 -3.46241 
66 1 5.62947 -2.08094 -3.86762 
291 1 -5.58386 -2.04824 -3.28605 
833 1 -4.96733 -1.20644 -4.98038 
161 1 -4.93913 -1.69687 -3.80437 
717 1 -4.44179 -1.256 -4.32587 
848 1 -3.78928 -1.0138 -3.53551 
1097 2 -3.52279 -1.91636 -4.0912 
1271 2 -2.94885 -1.5275 -4.59749 
1682 2 -2.57728 -1.78227 -3.88144 
419 1 -2.57344 -1.06283 -3.2054 
1867 2 -1.64484 -1.33017 -4.11487 
1781 2 -1.46531 -1.67204 -3.30866 
367 1 0.262126 -1.81025 -4.44104 
35 1 -0.470468 -1.65637 -5.08571 
1537 2 -0.771246 -0.923232 -4.10178 
1644 2 0.0421662 -0.88339 -3.82059 
8 1 0.873454 -1.22801 -4.88175 
421 1 1.23743 -1.46811 -4.04097 
674 1 2.06323 -1.20617 -4.01248 
1259 2 2.49126 -2.06452 -4.2756 
427 1 1.9458 -1.52821 -3.16633 
640 1 2.63459 -1.29174 -3.58453 
1363 2 3.34409 -1.72536 -4.14556 
1030 2 3.83909 -1.83966 -3.06601 
2048 2 4.21535 -1.5691 -3.80854 
205 1 -5.69125 -1.63625 -4.42308 
1110 2 5.85477 -0.928194 -3.96888 
1163 2 4.8511 -1.05138 -4.28169 
1754 2 -5.51649 -0.448205 -4.46914 
1111 2 -3.72808 0.141628 -4.32449 
1346 2 -4.81151 -0.126343 -4.72304 
278 1 -4.35206 0.653514 -2.99678 
1962 2 -4.47527 -0.339785 -3.80737 
1436 2 -2.90134 0.28515 -3.91769 
1876 2 -3.653 -0.0105645 -3.34437 
704 1 -3.14364 -0.747422 -4.26648 
37 1 -1.9984 -0.503082 -3.58237 
1761 2 -2.25413 0.55851 -3.25445 
234 1 -1.47415 -0.0891401 -4.0597 
799 1 -1.16153 -0.153105 -3.15384 
898 1 -1.75525 -0.757222 -2.85492 
1296 2 0.215369 -0.426407 -4.4621 
789 1 -0.478762 0.219813 -4.01189 
517 1 0.254232 0.578789 -3.96095 
80 1 0.963637 0.969022 -4.34477 
1456 2 0.903369 -0.605054 -3.90691 
1975 2 1.62344 0.0160521 -4.13151 
1832 2 1.90253 -0.29447 -3.23517 
1412 2 2.60125 0.553982 -4.61843 
1777 2 2.46597 0.159088 -3.84791 
116 1 3.23622 -0.707606 -3.83943 
846 1 3.72061 -0.675425 -3.20932 
1673 2 3.09526 0.259499 -3.27465 
715 1 4.43285 -0.284593 -3.75298 
872 1 5.03997 0.171063 -4.12852 
692 1 -5.7958 0.517037 -3.93658 
109 1 5.56956 -0.0942286 -3.39509 
190 1 -4.86965 0.692136 -3.85957 
915 1 -5.13732 0.859344 -4.6158 
1377 2 -5.51983 1.66035 -4.04979 
697 1 -4.22455 1.13806 -4.39738 
980 1 -3.5912 1.5947 -4.68931 
164 1 -3.73541 1.04692 -3.51561 
689 1 -3.19192 1.62161 -3.71794 
489 1 -2.37548 1.7146 -3.41745 
1834 2 -2.7948 0.846392 -4.45989 
1364 2 -0.908979 1.28336 -4.18262 
1550 2 -1.99543 0.848884 -4.01908 
842 1 -0.0266055 0.908597 -5.00413 
1386 2 -0.0207591 1.51811 -3.6431 
1310 2 0.0445065 1.78166 -4.5711 
760 1 2.6119 1.63557 -4.53923 
1838 2 1.07038 1.59448 -3.08571 
1021 1 1.88786 1.36869 -4.25612 
731 1 2.99246 1.60784 -3.80762 
2008 2 3.29638 0.616504 -4.02006 
1953 2 4.02006 0.701408 -3.43842 
232 1 3.56964 1.52407 -3.07356 
1497 2 5.72125 1.79559 -4.57521 
1068 2 5.12306 1.38273 -4.09362 
1858 2 5.74089 1.34763 -3.57781 
1654 2 -4.80019 1.80899 -3.73349 
676 1 -4.93877 3.00218 -3.61439 
188 1 -5.39176 3.26105 -4.4077 
1877 2 -3.88954 2.37466 -3.4895 
1728 2 -4.3762 2.33684 -4.24775 
1142 2 -3.34226 2.82173 -3.98566 
903 1 -2.68914 2.05172 -4.52796 
1625 2 -2.30779 3.17862 -3.74645 
719 1 -1.97811 2.14584 -4.12928 
585 1 -1.56148 1.8085 -3.05568 
397 1 -1.15042 2.33006 -3.88653 
852 1 -0.4813 2.67207 -4.39433 
843 1 0.202878 2.68648 -3.64493 
310 1 0.214224 3.19793 -4.67597 
1683 2 0.778753 1.93083 -3.87691 
2020 2 1.58378 2.16297 -3.50285 
56 1 0.79084 3.24635 -3.91019 
1999 2 1.48488 2.43712 -4.34614 
1769 2 2.2808 2.74963 -4.50042 
1214 2 2.42495 2.4386 -3.63525 
1522 2 3.31219 2.80248 -3.65755 
2039 2 3.08893 2.99038 -4.41147 
381 1 4.37727 1.95801 -3.29314 
811 1 5.27266 2.23548 -3.27588 
1562 2 3.87076 3.16713 -4.17157 
631 1 5.75305 2.8126 -4.06189 
702 1 4.92734 2.31996 -4.06418 
7 1 -5.64106 2.59268 -3.41422 
1971 2 -5.44179 4.13564 -3.66714 
1669 2 -4.55583 4.30314 -3.08451 
92 1 -4.53806 3.45811 -4.29775 
446 1 -3.76435 3.82397 -3.94549 
250 1 -3.194 4.17623 -4.573 
989 1 -3.17515 3.58659 -3.34659 
1476 2 -1.19106 3.3788 -3.81007 
772 1 -2.673 4.14711 -3.86878 
1268 2 -1.73302 3.59064 -4.40543 
1689 2 -0.774981 3.72387 -4.47009 
1304 2 -0.0361462 4.02041 -3.95841 
1372 2 0.742063 4.23496 -3.74741 
709 1 1.62169 3.39938 -3.84742 
2040 2 1.49564 4.59685 -3.80266 
1093 2 2.01608 4.75321 -3.2277 
884 1 2.39014 3.81975 -3.94417 
256 1 2.56223 4.19739 -4.69505 
394 1 3.27799 3.9501 -3.72957 
1618 2 4.13261 3.73217 -4.71524 
653 1 3.43501 4.41552 -4.47834 
835 1 4.28942 4.20546 -3.50699 
443 1 4.3076 4.6471 -4.15806 
1073 2 5.22938 4.09177 -4.46237 
1439 2 4.7202 3.45144 -3.94783 
1636 2 5.69722 3.77367 -3.93815 
699 1 5.67668 5.46209 -4.41792 
918 1 -5.76214 5.15 -3.70771 
346 1 -5.02048 5.57436 -4.03268 
1575 2 -4.8228 4.48757 -3.94676 
1275 2 -3.75988 4.83126 -3.7254 
1038 2 -3.51377 5.2659 -4.37285 
993 1 -3.86302 5.72904 -2.99252 
1957 2 -2.70144 5.40282 -4.03077 
1335 2 -2.86647 4.99912 -3.30826 
340 1 -0.740408 4.76577 -3.90573 
1236 2 -1.98254 5.31717 -3.29573 
1329 2 -1.37347 5.68006 -3.69764 
568 1 0.0138443 5.42559 -4.11373 
628 1 0.323447 5.7647 -4.91532 
1668 2 1.25044 4.80664 -4.58277 
673 1 1.32015 -5.79481 -4.72509 
959 1 0.942854 5.60672 -4.18205 
575 1 1.89543 -5.88847 -3.89314 
1847 2 2.58331 5.55565 -4.78125 
1955 2 2.18919 5.03668 -4.188 
1691 2 3.13931 5.2939 -3.99337 
1704 2 4.34675 -5.83882 -4.2767 
1667 2 3.44373 5.76433 -4.7659 
1714 2 3.90243 5.52256 -3.85121 
662 1 5.09662 5.04861 -4.6985 
579 1 5.16504 4.78979 -3.77473 
1425 2 5.15066 -5.87822 -3.89271 
1534 2 -5.15463 -5.79153 -2.76446 
1822 2 -4.13543 -5.52077 -1.86441 
284 1 5.77774 -4.6901 -3.25925 
864 1 -5.35215 -4.68468 -2.4844 
1197 2 -3.64426 -4.9053 -2.92624 
1404 2 -3.42375 -5.41407 -2.02257 
366 1 -4.62532 -4.38848 -2.46614 
1047 2 -2.84331 -4.90314 -2.42125 
229 1 -1.97748 -5.78849 -2.14294 
295 1 -2.3405 -5.73839 -2.97443 
260 1 -1.84414 -5.2967 -3.5397 
934 1 -1.48642 -5.38792 -2.7238 
5 1 -0.178104 -4.91626 -2.41645 
1592 2 1.36563 -5.0589 -3.62875 
1082 2 2.11321 -5.12277 -2.89489 
1742 2 0.639612 5.89485 -2.08327 
1319 2 1.40434 -5.37664 -2.48406 
1563 2 2.6707 -5.29248 -2.18465 
180 1 2.3639 5.76981 -3.14126 
67 1 2.83954 5.59737 -2.3343 
1013 1 4.268 -5.52239 -2.69851 
955 1 3.43546 -5.8456 -2.87934 
1521 2 3.39489 -4.84757 -2.31611 
153 1 4.83239 -5.43845 -2.00589 
452 1 5.70356 -5.01082 -2.30078 
666 1 5.04616 -4.92809 -2.91475 
1400 2 -5.23535 -3.43381 -2.45783 
411 1 -5.21389 -4.35242 -3.44019 
1545 2 -4.72695 -3.42304 -1.83921 
246 1 -3.77616 -4.12305 -2.0843 
313 1 -3.60843 -3.73327 -2.99085 
599 1 -2.91849 -3.96297 -1.94034 
1106 2 -2.19291 -4.51658 -2.58525 
1878 2 -1.32141 -4.28719 -2.55297 
1896 2 -1.05713 -4.47845 -1.66212 
1848 2 -0.499183 -3.90486 -2.69476 
1580 2 -0.414955 -3.90827 -1.87883 
1263 2 0.438708 -3.76316 -2.0473 
547 1 2.10174 -3.73621 -3.6041 
107 1 0.583421 -4.38352 -2.93942 
321 1 1.72152 -4.22994 -2.65204 
403 1 3.08181 -3.30346 -3.3505 
1001 1 2.81845 -3.76906 -2.59906 
1240 2 4.08002 -4.35469 -2.57303 
602 1 4.46957 -2.87131 -2.86466 
140 1 3.62639 -3.38278 -2.55882 
2002 2 4.9548 -3.95184 -2.63377 
1664 2 -5.16171 -3.17965 -3.23455 
636 1 -5.67978 -2.50462 -2.20112 
592 1 -4.9754 -2.16737 -2.71287 
275 1 -4.53861 -2.27783 -1.85991 
1924 2 -4.2927 -2.80865 -2.75775 
1052 2 -3.45547 -2.79086 -2.72084 
388 1 -2.62911 -3.40244 -2.93553 
1086 2 -3.05373 -2.19199 -3.30292 
1505 2 -3.10041 -3.00711 -1.8131 
1391 2 -2.55951 -2.52302 -2.43921 
753 1 -2.11774 -3.50678 -2.09477 
526 1 -0.75843 -2.71981 -2.94564 
1449 2 -2.27331 -2.59914 -1.64154 
830 1 -0.566997 -2.01272 -4.138 
1457 2 0.269303 -3.30458 -2.84347 
211 1 0.375131 -2.35382 -2.68104 
998 1 -0.127198 -2.21703 -3.35372 
1401 2 1.13196 -3.15257 -2.76042 
581 1 1.18196 -2.25341 -2.2338 
1991 2 1.41765 -3.45393 -1.94282 
1533 2 1.94814 -3.01436 -2.74213 
1123 2 2.7527 -2.47866 -2.78755 
1066 2 2.34482 -2.84598 -2.04645 
1947 2 3.11456 -2.7278 -1.76431 
471 1 3.95501 -3.01335 -3.3195 
1167 2 4.55793 -1.86316 -2.71107 
1973 2 3.63674 -2.34508 -2.29267 
968 1 5.70272 -2.4507 -2.96799 
296 1 5.283 -2.85824 -2.43225 
2035 2 -4.6306 -0.669404 -2.86414 
1826 2 -5.23943 -0.725622 -3.52601 
1792 2 -5.29446 -1.29434 -2.30574 
767 1 -4.45474 -1.60546 -2.97145 
58 1 -3.84265 -1.77038 -2.19649 
917 1 -3.37344 -1.33148 -2.81836 
449 1 -2.95442 -1.68699 -1.91702 
1635 2 -2.1712 -1.98477 -3.13105 
1808 2 -1.4199 -1.84456 -2.58864 
117 1 -2.4652 -1.30637 -2.45537 
59 1 -1.44356 -0.927105 -2.08496 
1870 2 -0.758781 -1.25381 -3.25812 
1916 2 0.142349 -1.18014 -2.96621 
11 1 0.626971 -1.851 -3.64716 
1517 2 1.0434 -0.853437 -3.12079 
287 1 1.27944 -1.91428 -3.02748 
2046 2 1.06932 -1.13474 -2.07012 
1360 2 1.8411 -0.769915 -2.38909 
106 1 2.22201 -1.66025 -2.44276 
125 1 2.98558 -1.0907 -2.88029 
199 1 3.12671 -1.48721 -2.03478 
691 1 3.70233 -1.02516 -2.3279 
1641 2 5.45636 -1.49057 -2.36866 
1350 2 5.1958 -1.24585 -3.31537 
1946 2 -5.78487 -1.16402 -3.02515 
230 1 -5.21422 0.403372 -3.16056 
32 1 -4.87858 0.250667 -2.40678 
1589 2 -3.72586 -0.411187 -2.45354 
1098 2 -2.82353 -0.0094637 -3.06416 
1206 2 -2.02816 0.182748 -2.32203 
630 1 -0.667927 -0.616156 -2.52764 
2043 2 -1.05782 0.550955 -1.98165 
499 1 -0.0874994 -0.0697893 -3.23459 
1297 2 -0.206965 0.598261 -2.33425 
160 1 0.160748 -0.464086 -1.68414 
963 1 0.298107 -0.273268 -2.51172 
625 1 1.6021 0.7534 -3.48321 
615 1 0.683916 0.41218 -3.27535 
464 1 1.09551 0.335251 -2.50671 
2027 2 2.55002 -0.250247 -2.62906 
1502 2 3.60292 0.194656 -2.5822 
241 1 4.77333 -0.385198 -3.04916 
1696 2 3.14962 -0.260746 -1.92849 
297 1 -5.81196 -0.090496 -2.77581 
518 1 5.40569 -0.415978 -2.44938 
2030 2 5.28117 0.565866 -2.03611 
1986 2 -5.52181 1.35386 -2.94881 
1724 2 -4.98885 1.32158 -2.1895 
1861 2 5.71452 1.00395 -2.61957 
900 1 -3.39189 0.8755 -2.56538 
1132 2 -4.39669 1.77302 -2.90733 
1512 2 -4.08901 1.73623 -1.99022 
613 1 -2.79465 1.35807 -2.78269 
189 1 -2.5729 0.982253 -2.01759 
1149 2 -1.32359 0.93994 -3.54446 
2022 2 -1.35187 0.632922 -2.70903 
686 1 -2.05628 1.40376 -2.42429 
134 1 -0.751716 1.814 -2.32624 
259 1 -1.34287 1.45004 -1.94065 
1104 2 -0.589855 1.00268 -3.02879 
1187 2 0.290245 1.30981 -2.69682 
301 1 0.164977 2.40118 -2.71704 
1340 2 1.49119 1.74148 -2.31354 
1642 2 2.22921 2.16013 -2.68036 
594 1 2.31544 1.25448 -3.45093 
886 1 1.89028 0.633352 -2.57023 
50 1 2.59714 1.06278 -2.72543 
874 1 3.08871 0.919269 -1.95895 
104 1 3.75434 1.3506 -2.33614 
944 1 4.63045 1.66167 -2.47405 
1952 2 5.05579 0.906346 -3.16908 
194 1 -5.49991 2.32735 -2.60289 
69 1 -4.80557 2.78816 -2.57822 
926 1 -4.85496 2.41599 -1.71314 
516 1 -5.7458 2.0476 -1.71647 
1485 2 -3.50213 2.13476 -2.5029 
369 1 -4.27453 3.32751 -3.22563 
966 1 -4.09814 2.91394 -2.01126 
1794 2 -2.96519 2.5191 -3.10979 
1938 2 -2.76834 2.0951 -2.12274 
1415 2 -2.20578 2.60973 -2.70906 
1607 2 -1.63528 3.05356 -3.0965 
1756 2 -0.780804 3.08957 -2.83613 
208 1 -0.666903 2.15998 -3.0882 
76 1 0.84679 2.76172 -2.92895 
885 1 1.68701 3.22551 -3.07041 
478 1 1.53498 2.7477 -2.18923 
896 1 2.27911 3.13992 -2.32141 
1461 2 3.10736 2.41003 -2.8483 
510 1 3.26907 3.36475 -2.26446 
1330 2 3.97252 2.67777 -2.63861 
1977 2 4.12536 2.96897 -3.41743 
1866 2 3.18721 2.12397 -1.96599 
761 1 5.4891 2.1598 -2.46282 
1026 2 4.80528 2.8406 -2.57078 
1825 2 5.91783 3.25461 -2.47047 
1333 2 -5.6608 3.71903 -3.07377 
1399 2 -5.22019 3.32585 -1.73401 
1278 2 -5.05953 3.82662 -2.42552 
1419 2 -4.17238 4.14516 -2.32977 
1105 2 -4.49096 3.66756 -1.64828 
276 1 -3.69121 3.16658 -2.6827 
26 1 -2.9219 3.56688 -2.37404 
520 1 -2.03024 3.38994 -1.76925 
733 1 -2.28568 3.85707 -2.83667 
612 1 -1.01405 4.28614 -2.95984 
720 1 -1.53308 3.89344 -2.38293 
86 1 -0.0928358 4.71956 -2.94331 
1616 2 -0.305443 3.57289 -3.40937 
1183 2 0.435249 3.77214 -2.89143 
836 1 0.367288 4.57779 -2.2868 
1071 2 1.27631 4.17804 -2.84387 
1042 2 2.09883 4.25746 -2.57754 
34 1 2.70955 3.59148 -3.04716 
1559 2 3.15869 4.62054 -2.57119 
448 1 3.7043 3.81862 -2.95246 
552 1 4.41535 3.89179 -2.38379 
1994 2 5.32368 3.5207 -3.09466 
775 1 4.94234 4.31382 -2.89383 
432 1 5.59828 4.29445 -2.12134 
166 1 -5.15062 4.9298 -2.54263 
370 1 -4.77912 5.24511 -3.22466 
589 1 -3.24295 5.2971 -1.62162 
342 1 -3.01391 5.76963 -2.62759 
1287 2 -3.54283 4.5213 -2.96922 
1325 2 -2.41205 4.90133 -2.48411 
1601 2 -1.60001 4.87179 -1.95255 
1339 2 -1.48747 5.27715 -2.68847 
1543 2 -0.757641 5.37745 -2.39356 
1571 2 -0.824561 5.64977 -3.18762 
1818 2 -0.339974 -5.79329 -3.48633 
564 1 0.48555 5.17903 -3.40585 
652 1 0.973653 5.04896 -2.47885 
442 1 1.27581 5.65214 -3.38527 
1593 2 2.8302 4.85321 -3.41178 
487 1 1.71096 5.49934 -2.64898 
1489 2 4.73101 5.61747 -3.25352 
1612 2 3.8481 5.08107 -3.17728 
1090 2 4.57623 5.17701 -2.58755 
262 1 5.87314 4.76661 -2.90857 
1773 2 5.69875 5.89482 -3.12586 
2000 2 5.30322 5.68683 -2.47269 
280 1 -5.66562 -5.1437 -1.54127 
142 1 -5.06979 -5.09234 -0.881117 
182 1 -4.85436 -4.72981 -1.64525 
1454 2 -2.93359 -5.50549 -1.05958 
724 1 -4.20584 -4.94055 -0.69024 
1815 2 -3.77472 -5.71255 -0.992071 
1783 2 -2.50294 -5.06224 -1.57525 
1802 2 -2.2617 -5.24061 -0.677159 
337 1 -0.932394 -5.4413 -2.02378 
1613 2 -1.63352 -4.9853 -1.04842 
147 1 -0.319002 -5.5313 -1.37226 
328 1 0.311353 -4.99211 -1.5887 
661 1 0.964845 -5.19466 -0.936845 
20 1 1.60109 -4.67155 -1.53653 
1081 2 0.326054 5.41521 -1.20664 
1887 2 1.79343 -5.69529 -1.77887 
1928 2 1.15204 5.79603 -1.30004 
2019 2 2.53542 -5.6064 -1.23889 
1194 2 4.05075 -5.20124 -0.933782 
1859 2 3.34416 -5.24871 -1.48354 
422 1 3.98589 5.8287 -2.15581 
2017 2 4.82541 -4.60988 -1.08655 
1765 2 4.18566 -4.82032 -1.68005 
456 1 5.29349 -5.7728 -1.18236 
988 1 -5.84668 -5.55065 -0.890051 
1217 2 -5.40674 -3.8661 -1.44742 
504 1 -3.99304 -4.61718 -1.39868 
1387 2 -4.63356 -3.98113 -0.810573 
1948 2 -4.04333 -3.51978 -1.15611 
71 1 -2.25589 -3.98141 -1.28541 
21 1 -3.13567 -4.27781 -1.08885 
1843 2 -1.77988 -4.6999 -1.88523 
844 1 -2.01753 -4.10456 -0.513367 
986 1 -1.54497 -3.51721 -1.49377 
1246 2 -0.657222 -4.68365 -0.925855 
1753 2 -0.0279707 -4.17056 -1.06088 
938 1 0.879606 -4.60835 -2.05065 
1894 2 0.909435 -3.82801 -1.29341 
914 1 2.25087 -4.25413 -2.00949 
1658 2 1.45979 -3.84735 -0.51767 
1738 2 1.90937 -3.40453 -1.32676 
550 1 2.65621 -4.66256 -1.00647 
639 1 3.00536 -4.08198 -1.76844 
754 1 3.91859 -3.53642 -1.73144 
928 1 4.36514 -3.85136 -0.795436 
137 1 3.65781 -4.01065 -1.17378 
1131 2 -5.93063 -3.81285 -2.24236 
562 1 4.51737 -3.25113 -2.09192 
1530 2 4.97575 -4.33855 -1.9239 
1471 2 5.69068 -4.17102 -1.44501 
311 1 4.80865 -3.3368 -1.30144 
1487 2 5.51829 -4.55436 -0.74279 
764 1 -5.32208 -3.21496 -0.497206 
734 1 -5.38697 -2.78912 -1.39232 
1289 2 -3.90121 -3.09692 -2.00276 
219 1 -4.14846 -2.38883 -1.00841 
1442 2 -3.07695 -3.19919 -1.04844 
1216 2 -2.24596 -2.86749 -0.863435 
1113 2 -1.47159 -2.50296 -0.925115 
1069 2 -1.45464 -2.2306 -1.69428 
677 1 -1.29536 -3.13398 -2.24808 
703 1 -0.398092 -3.18279 -1.26284 
566 1 -0.465106 -2.76463 -2.22959 
215 1 1.35056 -2.50872 -1.33456 
705 1 0.463126 -2.79049 -1.65968 
839 1 2.76426 -1.77199 -1.32933 
1923 2 2.73675 -3.23519 -1.17826 
1279 2 4.30065 -2.19145 -1.8417 
1698 2 3.79503 -2.65763 -1.13963 
1028 2 4.58811 -2.48697 -0.917335 
213 1 5.73117 -2.99928 -1.69456 
1978 2 5.20971 -2.10309 -1.62763 
1587 2 -4.88097 -1.42947 -1.42245 
1990 2 -5.85049 -1.59439 -1.7531 
1169 2 -5.4662 -1.79219 -0.801876 
1972 2 -4.45256 -0.907724 -2.04261 
1940 2 -4.12224 -1.36978 -1.10152 
1025 2 -3.58655 -0.803084 -1.66574 
285 1 -3.59617 -2.17482 -1.45807 
722 1 -2.69517 -1.89682 -1.02043 
548 1 -2.08139 -1.29975 -1.62796 
948 1 -1.71325 -1.71115 -0.352454 
1174 2 -3.30518 -1.1335 -0.696787 
447 1 -0.786184 -0.787083 -1.57992 
683 1 -1.41309 -1.32587 -1.0254 
1819 2 -0.744365 -1.68058 -2.33735 
1057 2 0.264766 -1.49771 -2.11617 
1796 2 -0.612122 -1.99657 -1.49846 
1897 2 1.50561 -1.10483 -1.23579 
1831 2 1.01036 -1.58807 -0.834907 
377 1 1.95057 -1.96671 -1.67948 
1568 2 2.37002 -0.731143 -1.62301 
1361 2 2.34964 -0.853953 -0.794947 
334 1 4.57415 -0.773586 -2.13347 
1758 2 3.93555 -0.466944 -1.14807 
626 1 3.60287 -1.51692 -1.29492 
867 1 4.40024 -1.28058 -1.52542 
279 1 -5.94935 -0.84019 -0.805318 
168 1 5.22896 -0.967204 -1.62876 
958 1 -4.94011 -0.464135 -0.944653 
654 1 -5.41977 -0.243484 -2.167 
876 1 -5.82535 -0.506892 -1.53976 
1508 2 -5.15524 0.666816 -1.01192 
824 1 -4.0989 0.557281 -2.11204 
912 1 -4.62379 -0.0546705 -1.58346 
921 1 -3.66631 0.152176 -1.20124 
1432 2 -2.81276 -0.346926 -2.08735 
1128 2 -2.59222 -0.565634 -1.03611 
1507 2 -1.8681 -0.220001 -1.50487 
307 1 -2.68738 0.362571 -1.08031 
1323 2 -1.08057 -0.122024 -1.02373 
1067 2 -0.399957 0.296002 -1.47972 
601 1 0.617037 -0.416088 -0.794642 
1893 2 0.292751 0.698542 -1.41894 
1213 2 -0.171471 0.352877 -0.725888 
776 1 0.935246 -0.127788 -1.78627 
121 1 1.83082 0.208942 -1.76456 
90 1 2.54509 0.539955 -1.5029 
1314 2 3.07932 -0.428784 -1.10812 
1320 2 4.47309 0.541821 -2.58229 
1680 2 4.16092 0.142111 -1.71645 
1564 2 5.0112 0.0818211 -1.43149 
1220 2 5.81279 0.50726 -1.18303 
1720 2 -4.57591 1.2612 -1.39507 
1803 2 -5.68596 0.799931 -1.81872 
351 1 -5.58694 1.45363 -0.290444 
1282 2 -3.92569 1.28317 -0.958254 
1520 2 -3.37945 1.67314 -1.57521 
94 1 -3.29616 0.672068 -1.70699 
1776 2 -2.5189 1.8154 -1.16504 
192 1 -1.98895 0.811666 -1.33166 
919 1 -1.15958 1.19666 -1.08591 
614 1 -1.58103 0.742727 -0.608548 
115 1 -0.43782 1.45151 -1.39857 
1944 2 0.720136 1.08904 -1.98181 
608 1 0.141683 1.76502 -0.886381 
910 1 0.159556 2.01025 -1.86237 
1860 2 1.04095 1.10619 -1.14653 
1158 2 1.69013 1.26422 -1.62193 
1726 2 1.72878 1.14138 -0.655807 
1681 2 2.38771 1.48818 -1.06662 
1967 2 2.34594 1.76326 -1.82796 
1874 2 3.25155 1.79024 -1.15302 
783 1 3.76008 0.899396 -1.20656 
492 1 4.53977 1.26338 -1.75837 
858 1 4.22671 0.917403 -0.637718 
110 1 -5.96352 1.62084 -1.0538 
1017 1 5.37424 1.62156 -1.70287 
16 1 5.06053 1.20314 -0.871633 
1527 2 5.28297 2.96016 -1.93663 
1685 2 -4.7979 3.36635 -0.933981 
1003 1 -5.15449 1.89874 -0.771339 
298 1 -4.41424 2.35823 -1.00829 
879 1 -3.5681 2.66644 -1.18293 
781 1 -3.94793 2.18015 -0.32388 
1839 2 -2.02445 2.26054 -1.75042 
460 1 -2.62371 2.96912 -1.12502 
323 1 -3.05305 3.01149 -1.84512 
1959 2 -1.34069 2.69534 -2.23712 
2021 2 -0.512583 2.78011 -1.50511 
1023 1 -1.81061 3.19588 -0.795536 
1092 2 -1.27432 2.22155 -1.19544 
1968 2 0.487298 3.34488 -1.38405 
240 1 0.771916 2.42795 -2.01054 
1679 2 -0.207581 3.24374 -2.18933 
828 1 2.51475 2.86913 -1.51714 
937 1 1.83189 2.4985 -1.35678 
183 1 3.37169 3.11661 -1.27521 
143 1 2.31719 2.51823 -0.636722 
1786 2 3.9819 2.04222 -0.946968 
379 1 4.11047 2.98226 -0.688435 
1328 2 4.0843 2.3189 -1.76209 
1686 2 4.7906 2.04815 -0.415051 
1368 2 4.7175 2.50088 -1.38307 
355 1 -5.40683 4.56461 -1.78857 
961 1 -4.52627 4.86667 -1.63062 
1056 2 -5.89896 2.93177 -1.23797 
641 1 -4.417 4.40413 -0.504921 
1992 2 -3.0015 4.35692 -1.99494 
1853 2 -3.6328 4.03162 -1.50229 
1348 2 -2.32844 4.38356 -1.53908 
1155 2 -2.98395 3.95777 -0.993121 
418 1 -1.30604 3.61808 -1.40437 
165 1 -0.663681 3.7673 -0.653013 
111 1 -0.60475 4.26063 -2.30081 
1646 2 -1.46889 4.41794 -1.00229 
361 1 -0.266876 4.06943 -1.42896 
1499 2 1.61149 3.74383 -1.8888 
1981 2 0.829188 3.62699 -2.06076 
1854 2 2.3838 3.94062 -1.24699 
905 1 2.01655 4.84727 -1.02793 
736 1 0.620086 4.52312 -1.48292 
1764 2 2.79404 4.22916 -1.88457 
742 1 4.8308 3.44955 -0.774002 
181 1 4.14829 3.46371 -1.54456 
1178 2 3.85794 4.70827 -2.05966 
1868 2 3.4281 4.43508 -1.3275 
582 1 5.78441 3.99235 -1.33472 
974 1 -5.21538 4.27539 -1.1037 
650 1 4.92446 3.76693 -1.53118 
580 1 -5.39843 4.02749 -0.387845 
1362 2 -5.34765 5.4407 -1.28626 
1122 2 -4.77566 5.86727 -1.98332 
952 1 -3.90098 5.24856 -2.27259 
1351 2 -4.60671 5.71906 -0.927472 