ITEM: TIMESTEP
0
ITEM: NUMBER OF ATOMS
3594
ITEM: BOX BOUNDS pp pp pp
-7.0446405639779792e+00 7.0446405639779792e+00
-7.0446405639779792e+00 7.0446405639779792e+00
-7.0446405639779792e+00 7.0446405639779792e+00
ITEM: ATOMS id type x y z
2748 2 -6.38456 -6.3472 -6.13739
3545 2 -5.99194 -5.96671 -5.66595
3245 2 -6.77852 -6.76559 -6.58202
2149 1 -5.17056 -6.47629 -5.89652
2237 1 -5.46221 -6.83299 -6.46039
291 1 -5.31161 -6.15038 -6.96692
2229 1 -4.39474 -6.32064 -6.58923
550 1 -4.31075 -6.07291 -5.84242
2456 1 -3.50994 -6.19211 -6.30435
806 1 -2.55186 -6.25572 -5.83081
3594 2 -2.24354 -5.96092 -6.72656
1219 1 -2.81142 -6.88675 -6.57605
1939 1 -1.65254 -6.64033 -5.89269
1423 1 -0.923537 -6.39472 -6.74728
2103 1 -0.892591 -6.54954 -5.77475
2174 1 -0.139157 -6.81985 -5.75024
266 1 -0.151396 -5.81672 -6.112
3095 2 0.283118 -6.63702 -6.80162
3212 2 0.724507 -6.38643 -6.17297
1000 1 1.5501 -5.98752 -6.73239
363 1 2.18963 -6.43676 -6.43026
1619 1 2.79394 -5.73248 -5.95458
1092 1 2.9634 -6.40732 -6.66184
1053 1 2.0192 -6.93333 -5.84149
3170 2 3.29792 -6.94398 -5.72798
828 1 4.36628 -6.62223 -6.02596
747 1 3.95194 -7.00944 -6.74749
221 1 3.78609 -5.97486 -6.26449
2439 1 5.56292 -6.65822 -5.84121
3076 2 5.34153 -5.77722 -6.57158
3533 2 4.79491 -6.35826 -7.01177
1373 1 6.20876 -6.68836 -6.35888
2302 1 6.65727 -5.972 -6.05141
2511 1 6.41584 -5.79703 -6.82537
2861 2 -6.27251 -4.25423 -6.74109
1750 1 -6.72774 -5.46155 -6.67438
181 1 -6.12546 -4.90626 -5.96775
2152 1 -4.85104 -5.44327 -6.08797
318 1 -5.10737 -4.6031 -6.1626
1716 1 -5.63489 -5.4178 -6.57732
1544 1 -5.06251 -4.52422 -7.00065
2966 2 -3.68399 -4.72998 -6.41274
2809 2 -4.10593 -5.1582 -6.78206
2790 2 -3.35253 -4.23691 -5.93455
1400 1 -1.92547 -4.26194 -5.65737
2295 1 -2.75914 -5.23643 -6.48116
2367 1 -2.51256 -4.57026 -6.85392
1951 1 -2.37024 -4.90782 -5.84909
732 1 -3.15686 -5.5112 -5.77131
3206 2 -1.0318 -5.24693 -5.94279
2120 1 -1.76624 -4.59295 -6.49984
2852 2 -1.60911 -5.63317 -6.27126
416 1 -0.785318 -4.80839 -6.96896
2406 1 -0.0488724 -5.04018 -6.41479
1659 1 0.0651514 -4.49808 -5.83007
864 1 0.462969 -5.4843 -6.84439
2458 1 0.78691 -5.07684 -5.82553
2533 1 1.83835 -4.71153 -5.99677
2291 1 1.21886 -5.15091 -6.54631
2140 1 1.95268 -4.49589 -6.78497
2765 2 2.84631 -5.18778 -6.99105
1111 1 2.37404 -4.23162 -5.78787
232 1 1.98462 -5.48936 -6.25712
3161 2 3.28283 -4.8559 -6.30611
2785 2 3.76544 -4.3811 -5.76549
1567 1 4.41347 -5.5808 -5.71349
32 1 4.25017 -4.34328 -6.78056
736 1 4.40458 -5.19321 -6.41902
3503 2 5.69995 -5.49374 -5.96648
454 1 5.54326 -4.5529 -6.829
261 1 4.8359 -4.51596 -6.33355
1983 1 6.23055 -4.91449 -6.77875
1852 1 6.89984 -4.98937 -6.19007
1336 1 6.94813 -4.27018 -5.82858
2988 2 -5.93054 -3.81196 -6.23885
474 1 -6.90004 -3.26599 -6.14115
1003 1 -4.61381 -3.93346 -5.95434
2322 1 -4.59062 -2.94809 -6.2219
1757 1 -5.11883 -3.49911 -6.88518
2948 2 -5.54065 -3.48342 -5.65629
2026 1 -4.42793 -4.03268 -6.85134
496 1 -4.02746 -3.48129 -6.3305
301 1 -3.33008 -3.20136 -6.35824
2065 1 -2.51368 -3.86376 -6.48466
352 1 -2.04963 -3.54679 -5.8
631 1 -2.63474 -2.85877 -6.84133
2055 1 -1.06365 -4.16599 -6.34154
3040 2 -1.40655 -3.25732 -6.69997
2661 1 -0.377459 -4.01551 -6.62261
1269 1 -0.0711623 -3.69261 -5.93807
1879 1 -0.246387 -3.09621 -6.5588
2447 1 0.553838 -2.97428 -7.01703
2949 2 0.784016 -4.04882 -6.69801
2983 2 1.03047 -3.74359 -6.12759
875 1 2.74916 -3.98585 -6.565
1886 1 2.53099 -3.35992 -5.89489
653 1 1.94556 -3.44415 -6.74957
1290 1 3.51038 -3.87616 -6.92665
2164 1 3.3894 -3.35777 -6.11849
2696 1 4.23033 -3.6023 -6.30691
2372 1 4.14683 -3.27468 -7.00339
529 1 5.36951 -4.08936 -5.76729
3436 2 5.496 -3.23456 -6.58417
949 1 6.5477 -3.87832 -6.7064
841 1 6.11452 -4.03859 -6.07038
991 1 6.82857 -3.14999 -7.02923
2251 1 -6.02589 -2.52888 -5.93042
2300 1 -6.56506 -2.72027 -6.73263
1531 1 -6.32629 -1.55028 -5.7175
1731 1 -6.72176 -2.0633 -6.22956
3201 2 -5.90712 -1.52187 -7.0188
31 1 -5.32527 -2.12128 -5.85799
97 1 -4.76482 -1.90551 -6.33039
973 1 -5.58808 -2.71583 -6.6378
1103 1 -4.12183 -2.17008 -5.73535
1439 1 -4.09223 -1.5038 -5.95443
3502 2 -3.74261 -2.39147 -6.80991
3055 2 -3.28195 -1.97558 -6.4316
3473 2 -2.85291 -1.68404 -5.89444
1175 1 -2.05295 -2.23536 -6.99786
2104 1 -2.35307 -2.74333 -6.02218
2990 2 -1.00559 -2.79467 -6.07081
1483 1 -1.53963 -1.89645 -6.42373
225 1 -1.8882 -1.97631 -5.64495
1295 1 -0.0770975 -2.2666 -6.63661
546 1 -0.613285 -1.54141 -6.37693
1012 1 0.46444 -2.0465 -6.06985
2635 1 1.74382 -2.50831 -6.90528
869 1 0.950437 -2.72785 -6.4768
1563 1 1.31135 -2.27429 -5.99765
274 1 2.1688 -1.80415 -6.99144
130 1 2.15243 -2.71547 -6.16716
1378 1 2.37948 -1.88907 -5.87116
1615 1 2.79804 -1.45907 -6.44049
3407 2 3.041 -2.71502 -6.9667
3454 2 3.44339 -2.26645 -6.44956
2904 2 3.90147 -1.92909 -5.88306
1315 1 4.38151 -2.39296 -6.77102
2425 1 4.76617 -2.56057 -6.16389
1004 1 5.02276 -1.86437 -6.7419
1876 1 5.27938 -1.99761 -5.86053
1167 1 5.96645 -1.66635 -6.5727
2807 2 5.85156 -2.7109 -6.13661
3579 2 6.4066 -2.78821 -5.83656
2667 1 6.6191 -1.52176 -6.1245
1188 1 6.69894 -2.27396 -6.74147
2443 1 -6.75086 -1.25518 -6.47425
2290 1 -6.55276 -0.597203 -6.04368
451 1 -5.87954 -0.284788 -6.84265
1545 1 -6.82507 -0.514879 -6.80241
3146 2 -5.11712 -0.827187 -5.83511
3262 2 -5.53723 -1.19193 -6.35733
2334 1 -4.99642 -0.380218 -7.04128
756 1 -3.60175 -0.711653 -6.1608
1327 1 -4.17905 -0.474314 -6.56489
405 1 -4.44683 -1.24386 -6.88062
248 1 -3.35785 -1.13666 -7.02459
1669 1 -2.8527 -0.589053 -6.55538
1610 1 -1.97977 -1.1251 -6.60837
2644 1 -2.12062 -0.281415 -6.18601
3176 2 -0.74647 -0.341011 -6.44061
3157 2 -1.12373 -0.646519 -7.02533
203 1 -1.63218 -0.721216 -5.91519
2540 1 -0.474531 -1.23442 -5.6935
2141 1 0.261666 -1.14824 -6.25144
696 1 0.766234 -0.430004 -6.06523
3581 2 1.12806 -1.3996 -6.7534
2826 2 1.53012 -1.12233 -6.21426
249 1 2.39815 -0.830103 -6.84467
2336 1 2.57237 -0.0254746 -6.60108
3169 2 1.99839 -0.779184 -5.76048
2157 1 3.05349 -0.659476 -5.99099
1742 1 3.61089 -1.16561 -6.51878
1380 1 3.98988 -0.600985 -6.15195
1255 1 4.78136 -0.546862 -5.88459
586 1 4.48597 -1.22771 -6.71145
426 1 5.21981 -1.1917 -6.0536
440 1 4.95598 -0.202245 -6.73521
276 1 5.93535 -1.31748 -5.7277
2801 2 6.37513 -0.250308 -5.91699
3575 2 5.78741 -0.854663 -6.9738
3305 2 6.30418 -0.469602 -6.60379
2519 1 -5.82369 -6.83583 -5.09953
1540 1 -5.83207 -6.1615 -4.2825
2125 1 -6.4143 -6.36441 -4.58423
1095 1 -4.80937 -6.67737 -5.32758
2324 1 -5.11172 -6.71025 -4.51195
443 1 -4.09814 -6.19111 -4.85215
3485 2 -3.40549 -6.8147 -5.41364
3186 2 -2.94844 -6.43857 -4.89368
3004 2 -2.63177 -5.93533 -4.29219
1885 1 -2.02468 -6.68593 -5.26503
1156 1 -2.05571 -5.701 -5.2901
5 1 -1.16642 -5.94404 -5.06409
686 1 -1.73865 -6.64139 -4.50621
2454 1 -0.377747 -6.07426 -5.21425
1187 1 -0.288946 -5.66537 -4.36033
605 1 0.390231 -5.81299 -4.65317
2625 1 0.296306 -6.54914 -5.00236
3121 2 1.1472 -6.10571 -5.59045
2404 1 1.39419 -6.5949 -4.34909
708 1 1.69121 -6.93112 -5.05595
3444 2 1.68656 -5.74233 -5.12677
1861 1 2.54195 -6.2546 -5.3137
1149 1 2.40402 -6.81075 -4.51511
1236 1 2.80624 -5.96235 -4.26991
3012 2 3.68842 -6.56192 -5.05735
2830 2 4.01333 -6.20105 -4.59461
398 1 5.18148 -6.72423 -4.25599
1307 1 4.78939 -6.20598 -5.43083
441 1 5.72428 -6.07154 -4.44922
442 1 4.92849 -6.80513 -5.03283
687 1 6.45786 -6.78928 -5.57193
1603 1 7.02502 -6.35043 -5.16134
462 1 5.89363 -6.15146 -5.27288
1575 1 6.5683 -5.95092 -4.65123
2342 1 -6.50616 -4.87719 -5.23081
901 1 -7.00306 -5.56348 -5.57873
286 1 -6.64274 -5.5621 -4.61851
2468 1 -6.0329 -4.91564 -4.4061
2778 2 -5.43532 -5.61189 -5.24786
972 1 -5.62073 -4.46806 -5.28789
183 1 -4.59348 -4.5602 -5.39101
3344 2 -5.00476 -5.38379 -4.62461
964 1 -3.62949 -5.50598 -4.94082
1257 1 -4.1866 -5.3038 -5.47062
466 1 -3.92314 -4.68357 -4.81223
2579 1 -3.21946 -4.74139 -4.35388
944 1 -2.12562 -4.79572 -4.81647
364 1 -2.91729 -5.16477 -5.12053
3039 2 -1.0478 -4.78634 -5.40334
423 1 -1.53164 -5.24233 -4.49238
3283 2 -0.494159 -4.78932 -4.96476
3375 2 -0.201795 -4.36379 -4.34065
1153 1 0.287777 -5.50818 -5.42012
2721 1 0.825335 -4.7539 -4.97467
1186 1 1.15009 -4.30498 -4.49282
627 1 1.44219 -4.60226 -5.36399
2298 1 3.09628 -4.61358 -4.769
2021 1 2.97128 -5.47999 -5.12779
1379 1 2.50708 -4.95313 -5.45626
3215 2 1.93747 -5.27317 -4.6467
1774 1 3.53603 -5.29886 -4.31592
1208 1 4.44506 -5.176 -4.93795
590 1 3.71615 -5.37206 -5.21686
2332 1 5.15104 -5.62607 -4.97416
1368 1 4.96079 -4.82498 -4.40305
340 1 4.93626 -4.84266 -5.4891
2757 2 6.06619 -5.01487 -5.42896
3511 2 6.55934 -4.66563 -4.83152
1019 1 5.82604 -5.20706 -4.29671
1281 1 -6.72485 -3.79994 -5.2946
1727 1 -6.00671 -4.18398 -4.62395
88 1 -5.99982 -3.2615 -4.65406
146 1 -6.41876 -2.93405 -5.3383
1747 1 -6.98999 -3.19563 -4.77047
1499 1 -4.97217 -4.13465 -4.65248
3196 2 -4.96322 -3.00993 -5.25852
259 1 -4.24231 -3.96429 -4.41491
2528 1 -4.15762 -3.74667 -5.30348
2401 1 -3.77441 -3.00635 -5.44827
2702 1 -3.71137 -3.35639 -4.43477
2923 2 -2.96861 -4.0213 -5.29139
2903 2 -2.52749 -3.5777 -4.66331
859 1 -1.52925 -3.61242 -5.09864
815 1 -0.859849 -3.62798 -4.71424
2036 1 -1.42516 -4.1932 -4.52512
556 1 -0.907875 -3.71705 -5.58491
366 1 -0.166069 -3.44116 -5.18186
1648 1 0.485461 -4.03501 -5.16702
407 1 0.446761 -2.91482 -5.53946
753 1 0.360209 -3.05951 -4.60385
3159 2 1.43601 -3.49217 -5.53642
567 1 1.07054 -3.3881 -4.50957
3118 2 1.84239 -2.8831 -5.05186
2556 1 2.41275 -3.6924 -4.42738
2398 1 2.00302 -4.20784 -4.94306
2213 1 2.86813 -3.82552 -5.25853
145 1 3.29868 -3.7231 -4.38067
2495 1 3.49416 -3.14933 -5.20852
3383 2 4.335 -3.64718 -4.55622
3174 2 4.13362 -4.13232 -5.16508
2648 1 4.14984 -2.99048 -5.57019
1437 1 5.55964 -4.11762 -4.88876
1882 1 4.95834 -3.44807 -5.62303
2254 1 5.57553 -3.31419 -5.12087
3230 2 6.9589 -4.13243 -4.37602
536 1 5.9944 -3.73225 -4.28152
1166 1 6.32536 -3.64799 -5.30328
1031 1 6.37143 -2.95029 -4.54051
2288 1 -5.9596 -2.09928 -5.20428
436 1 -5.78564 -2.3426 -4.55275
2787 2 -6.65405 -1.62858 -4.22802
3527 2 -7.00728 -2.00764 -4.81756
877 1 -5.49572 -1.46197 -5.04941
930 1 -4.58008 -1.63155 -5.12069
3210 2 -4.73029 -2.73031 -4.62605
469 1 -3.69649 -1.90346 -5.05882
2122 1 -3.49704 -2.64932 -4.85764
958 1 -2.91671 -2.75257 -5.56989
2176 1 -2.61038 -2.46268 -4.82034
1850 1 -3.09145 -1.55346 -4.46576
2483 1 -1.89487 -2.78561 -5.27006
2880 2 -0.929806 -2.45551 -4.91038
651 1 -1.74753 -1.86597 -4.85736
3567 2 -1.46746 -2.71841 -4.33978
3496 2 -0.407952 -2.299 -5.44676
2811 2 -0.100883 -2.00149 -4.81989
3181 2 0.37329 -1.68308 -4.35176
260 1 1.80417 -1.93363 -5.22259
1887 1 1.35948 -2.33676 -4.3467
1964 1 0.993514 -1.63757 -5.27912
379 1 0.944236 -2.50585 -5.00812
617 1 2.99009 -2.32412 -5.47573
2388 1 2.50594 -1.51192 -4.88359
2859 2 2.5705 -2.58009 -4.56144
131 1 4.37821 -2.40452 -4.80818
2348 1 3.56345 -2.08849 -4.82274
1130 1 3.75517 -2.81375 -4.35768
106 1 5.72745 -1.67201 -4.98539
1306 1 5.54873 -2.6831 -4.6313
652 1 5.0504 -2.69527 -5.30008
635 1 5.10587 -2.01146 -4.82072
2844 2 6.66235 -2.30556 -5.37844
1749 1 -6.6507 -0.572777 -4.64729
767 1 -6.07533 -0.81013 -5.04836
2517 1 -5.9883 -0.146945 -4.59245
1343 1 -6.04613 -0.0492681 -5.59305
2929 2 -4.51263 -0.506532 -5.40273
1493 1 -5.32528 -0.495819 -4.45847
1349 1 -5.04628 -1.17799 -4.34863
3373 2 -4.10685 -0.290426 -4.80092
2423 1 -4.0922 -1.30073 -4.28289
678 1 -3.55898 -1.07031 -5.13607
846 1 -2.68647 -0.164393 -5.60205
3242 2 -2.45913 -1.1492 -5.33207
3341 2 -2.07549 -0.77436 -4.67876
2729 1 -3.13331 -0.443893 -4.84211
2631 1 -1.28156 -1.40655 -5.59215
2319 1 -0.829241 -0.554828 -5.29891
3279 2 -1.3983 -0.561693 -4.27943
2027 1 -1.06819 -1.25225 -4.91667
1279 1 -1.5407 -0.064907 -5.44717
946 1 -0.0816408 -0.823163 -5.05254
1574 1 -0.561692 -1.08431 -4.23242
2731 1 -0.117768 -0.383231 -4.32392
2091 1 0.512883 -0.984198 -5.42646
393 1 1.14203 -0.187635 -5.33392
1635 1 0.786324 -0.504716 -4.69143
1367 1 1.66944 -1.27918 -4.75197
1068 1 1.86204 -0.575945 -4.23553
3036 2 2.33702 -0.234872 -5.22573
741 1 3.0488 -1.3575 -5.49428
3513 2 2.91132 -0.153877 -4.61229
1471 1 3.28646 -1.22254 -4.70321
2035 1 3.6083 -0.532194 -5.27651
3378 2 4.27439 -1.39646 -5.49735
2549 1 4.26702 -0.00224516 -5.38634
2835 2 5.26254 -0.847545 -4.34268
3009 2 4.63558 -1.0775 -4.83897
1083 1 5.51593 -0.499798 -5.50856
2219 1 6.99526 -0.96577 -5.30403
2330 1 6.25144 -1.03218 -4.67984
201 1 6.16572 -0.30655 -4.76539
1403 1 6.82023 -0.106462 -4.30864
3538 2 -6.8512 -6.39084 -3.64189
3237 2 -6.2961 -6.06596 -3.17813
233 1 -5.4473 -6.5156 -3.6096
517 1 -4.6321 -6.05911 -3.42413
15 1 -3.70226 -5.74433 -4.11589
1432 1 -4.47867 -6.35402 -4.19082
1673 1 -3.7983 -6.7591 -3.95912
3089 2 -4.09849 -6.71304 -2.88095
3150 2 -2.07754 -5.74124 -3.80839
798 1 -3.08357 -7.00502 -3.67819
2518 1 -3.09928 -6.25792 -3.23787
68 1 -1.97957 -6.80696 -3.46838
764 1 -1.14015 -6.07122 -4.13146
251 1 -1.41047 -6.26143 -3.01066
2042 1 -1.04736 -6.88386 -3.45821
3026 2 -0.237872 -6.86305 -4.1014
2775 2 0.109254 -6.42594 -3.60121
2740 2 0.458714 -6.03922 -3.06116
2674 1 1.03069 -5.87283 -4.20218
1811 1 1.58491 -6.46708 -3.35269
2717 1 3.18317 -6.8859 -4.14273
1382 1 2.04334 -6.18347 -4.02239
3506 2 2.64151 -6.60003 -3.15056
418 1 3.5828 -6.3156 -3.57035
1161 1 4.15808 -6.11307 -2.96661
3280 2 4.60458 -5.89269 -4.02231
1346 1 5.42802 -6.52245 -3.49963
2440 1 4.51734 -6.80925 -3.25888
1779 1 6.07443 -5.97853 -3.60092
3154 2 6.73428 -6.84917 -4.09347
1298 1 6.19725 -6.91806 -3.08602
467 1 -5.88975 -5.38454 -3.76417
1734 1 -6.84744 -5.1669 -3.83929
785 1 -6.399 -4.96195 -3.17699
2750 2 -4.54119 -5.06634 -3.97493
2664 1 -5.52044 -4.44645 -3.94504
2089 1 -5.266 -5.48194 -3.20201
1513 1 -5.62734 -4.70464 -3.09424
2831 2 -4.12303 -4.50927 -3.5546
903 1 -3.88694 -5.56535 -3.17156
2236 1 -3.25032 -5.33423 -3.573
1874 1 -2.3028 -4.47459 -3.98353
2450 1 -2.79564 -4.65376 -3.22837
1461 1 -1.07021 -4.72049 -3.9306
504 1 -0.719633 -5.52396 -3.61897
3364 2 -1.87212 -5.21419 -3.26391
1283 1 -0.763286 -5.52439 -2.84842
302 1 -0.58292 -4.58621 -3.21654
885 1 0.0970235 -5.25336 -3.79299
1196 1 0.812271 -5.11015 -4.1264
2060 1 1.5821 -5.56312 -3.53081
2394 1 0.676116 -4.89952 -3.31078
99 1 1.27499 -4.57234 -3.52174
2808 2 2.95299 -4.4427 -3.74317
3135 2 2.26243 -4.78114 -4.11687
602 1 2.88783 -5.58788 -3.50239
996 1 2.28238 -4.96652 -2.94549
3123 2 3.27721 -4.37014 -3.03568
1546 1 4.17516 -4.62998 -4.20885
231 1 4.29613 -4.57842 -3.20977
511 1 3.66228 -5.48364 -3.28774
1002 1 5.73948 -4.46673 -3.64207
2856 2 4.97628 -5.42416 -3.59538
2970 2 5.41867 -5.21707 -2.86443
1657 1 6.46588 -5.3689 -3.81548
1596 1 6.78353 -5.35411 -3.14417
2001 1 6.67052 -4.5322 -3.37207
3424 2 -6.58285 -3.99892 -3.78888
3266 2 -6.0786 -3.59266 -3.41826
2064 1 -6.62151 -2.83325 -4.17475
2521 1 -6.91698 -2.95456 -2.8287
1331 1 -5.21441 -3.71496 -4.09158
953 1 -5.14653 -4.06275 -3.12849
1252 1 -4.6208 -3.43516 -3.58959
3041 2 -3.73639 -4.08044 -2.98861
2384 1 -3.79545 -3.11027 -3.52272
2360 1 -3.33273 -3.96686 -3.98763
1069 1 -2.77245 -3.89629 -3.40682
3203 2 -1.98603 -3.31337 -4.0433
1091 1 -3.04421 -3.08205 -3.33914
609 1 -2.45981 -2.86145 -2.85285
71 1 -0.963625 -3.83674 -3.8018
29 1 -1.56595 -4.00801 -3.30164
776 1 -0.724661 -3.54058 -2.95691
2542 1 -0.376614 -3.00969 -4.06955
309 1 -0.289259 -2.86355 -3.28353
2771 2 0.201463 -3.92348 -3.74695
3253 2 0.620025 -3.57802 -3.28508
412 1 1.6189 -3.71981 -4.03799
2829 2 1.16902 -3.16693 -2.99945
971 1 1.95592 -4.03361 -3.26288
888 1 2.66509 -3.24383 -3.76455
2506 1 2.61952 -3.15834 -2.91334
2408 1 4.00932 -3.93756 -3.58957
1492 1 3.63542 -3.24014 -3.60299
789 1 5.04855 -4.14129 -3.7325
3463 2 5.2877 -2.9552 -3.5776
3512 2 4.83025 -3.29442 -4.10419
2114 1 6.67173 -3.66356 -2.94942
630 1 6.07319 -3.83995 -3.41837
2079 1 6.70374 -3.13173 -3.68459
884 1 -6.02834 -1.83795 -2.83876
619 1 -6.29032 -2.52283 -3.51187
808 1 -6.75959 -2.14419 -3.06496
1422 1 -5.37694 -2.78391 -3.74203
2656 1 -5.28687 -1.90687 -3.99607
1385 1 -5.27431 -2.21488 -3.12182
421 1 -4.56123 -2.774 -3.10129
1625 1 -4.76019 -1.66548 -3.30175
2865 2 -3.81727 -1.97532 -3.76653
3365 2 -4.30816 -2.43592 -4.10717
3282 2 -3.39185 -1.60287 -3.11169
1416 1 -2.52746 -2.17006 -3.55959
1652 1 -2.97958 -2.70424 -4.12868
265 1 -2.14473 -1.82432 -4.19746
1772 1 -2.12169 -1.67023 -2.84267
43 1 -1.12041 -1.7799 -3.98065
3395 2 -1.63223 -2.71518 -3.56176
3222 2 -1.12045 -2.44772 -2.94342
2633 1 -0.446646 -2.02225 -3.62994
1362 1 0.372938 -2.29843 -3.33821
588 1 0.688581 -2.61636 -3.92803
2312 1 1.85612 -2.78927 -3.6499
2010 1 1.83738 -1.85244 -3.99348
977 1 1.33423 -2.17263 -3.28845
3455 2 2.94395 -2.17652 -3.92873
1913 1 2.21047 -2.29135 -3.0253
2813 2 3.30673 -1.83994 -3.36687
2359 1 4.13146 -2.53911 -3.75297
2338 1 4.18691 -1.64379 -4.06648
1987 1 4.89388 -2.15975 -4.04595
1267 1 5.44411 -1.62364 -3.66787
682 1 4.63583 -1.47764 -3.50364
1790 1 4.64837 -2.23556 -3.07121
2262 1 5.98771 -1.99195 -4.18292
1348 1 6.70659 -2.29935 -3.78995
3083 2 5.83747 -2.67886 -3.19241
1968 1 6.40392 -1.53169 -3.43845
3069 2 -6.04217 -1.24217 -3.87642
1845 1 -6.46481 -0.259698 -3.94363
1180 1 -6.98271 -0.417038 -3.34603
3304 2 -5.78426 -0.813515 -3.39719
2671 1 -6.89738 -1.24635 -3.16577
1450 1 -4.52472 -0.917463 -3.58385
2467 1 -4.65133 -0.00041099 -3.35048
494 1 -3.84513 -0.486112 -3.23178
1505 1 -3.35367 -0.820057 -3.90777
701 1 -2.50736 -0.953647 -3.69673
2508 1 -2.81104 -0.247275 -4.02996
924 1 -3.04746 -0.220614 -3.06871
2380 1 -2.27544 -0.0892559 -3.31604
3464 2 -1.18068 -0.238496 -3.63635
108 1 -1.68206 -1.26339 -3.50668
96 1 -0.751391 -1.25562 -3.44976
2695 1 0.00588706 -0.66069 -3.52881
2223 1 0.0592769 -1.40708 -3.16831
3495 2 0.905328 -1.21494 -3.98985
3045 2 1.3176 -1.07296 -3.38386
2497 1 2.27103 -0.227607 -3.55608
1723 1 2.49271 -1.15989 -4.20985
2627 1 2.38981 -1.40582 -3.41199
174 1 2.83731 -0.746296 -3.32815
970 1 3.44416 -0.922485 -3.91023
311 1 4.0449 -0.414066 -4.14231
891 1 3.61666 -0.546127 -3.21045
3421 2 5.59183 -0.23202 -3.87096
2614 1 5.18185 -0.692389 -2.87864
2485 1 4.5312 -0.792431 -3.36414
2194 1 6.63983 -0.852372 -3.9278
2129 1 5.8617 -1.22311 -2.98017
2969 2 6.01978 -0.0703304 -3.18634
3070 2 -5.96618 -5.84681 -2.60272
2531 1 -6.85008 -6.14984 -1.81577
431 1 -5.90105 -6.87166 -2.26481
463 1 -6.61791 -6.95441 -2.01971
1588 1 -4.67542 -5.69805 -2.44082
1722 1 -4.86189 -6.21401 -1.75997
1123 1 -5.09843 -6.41945 -2.58109
141 1 -5.62859 -6.34056 -1.61208
1819 1 -4.26234 -6.77036 -1.49582
3136 2 -3.65492 -6.48572 -2.37341
3349 2 -3.37827 -6.0881 -1.81537
1822 1 -2.31667 -6.3202 -1.97696
572 1 -2.70059 -5.66651 -2.81054
852 1 -2.53497 -6.50932 -2.78147
770 1 -1.52621 -5.94249 -2.26073
3500 2 -1.0765 -6.87102 -1.62335
2080 1 -0.412057 -6.24684 -2.4875
1985 1 0.283813 -6.14431 -1.69025
2714 1 0.0984715 -6.78802 -2.06178
538 1 1.57905 -6.45821 -2.27631
2626 1 1.16241 -6.1764 -1.57837
132 1 0.910762 -6.80445 -2.2385
2744 2 3.07611 -6.52672 -2.50791
1935 1 2.44613 -5.98039 -1.68214
797 1 2.18334 -6.78371 -1.84806
1653 1 1.96778 -5.95879 -2.74352
2943 2 3.51999 -6.19179 -1.9769
2048 1 4.47169 -6.91272 -2.04047
3001 2 4.01756 -5.90027 -1.51034
1667 1 4.976 -6.39419 -2.50703
872 1 5.48848 -5.67741 -1.79587
805 1 5.07716 -6.28611 -1.44718
166 1 5.77865 -6.20641 -2.76275
435 1 6.8774 -6.61897 -2.68856
2607 1 6.26793 -5.75688 -1.78608
2198 1 6.57994 -5.94631 -2.57506
2803 2 6.34801 -6.83165 -1.51719
2132 1 -7.03115 -5.24192 -2.25446
740 1 -6.96732 -4.45184 -2.76316
677 1 -6.53405 -4.54048 -2.14273
3404 2 -5.70712 -5.32804 -1.91875
565 1 -4.9119 -4.83515 -2.5843
3107 2 -5.46362 -4.77787 -1.46602
2375 1 -4.32798 -5.41888 -1.63866
460 1 -4.11261 -4.99265 -2.64036
2231 1 -4.12754 -4.56035 -1.93232
1903 1 -3.2941 -5.08902 -2.52635
2639 1 -3.3979 -4.72324 -1.54787
2170 1 -2.54779 -5.25898 -2.21387
458 1 -2.65613 -4.43737 -2.43059
1402 1 -2.0399 -5.57107 -1.85174
574 1 -2.23343 -4.5104 -1.71429
42 1 -0.821161 -5.61849 -1.99597
3479 2 -1.12532 -4.41444 -2.24716
3306 2 -1.56233 -4.83274 -2.7068
1538 1 -0.0174829 -5.33591 -1.74691
954 1 -0.0766038 -4.96178 -2.71453
3088 2 -0.606322 -4.27561 -1.69171
2515 1 0.521046 -4.38029 -2.35816
3521 2 0.656782 -5.56142 -2.53566
2886 2 1.39886 -5.33618 -2.22868
2476 1 1.37308 -4.40365 -2.70546
3287 2 1.8414 -5.06378 -1.62003
822 1 2.94286 -5.3969 -2.4466
1642 1 2.78201 -4.7152 -2.0439
457 1 3.09013 -5.22491 -1.55831
2529 1 4.43767 -4.73806 -2.36272
1534 1 3.84992 -5.31584 -2.4271
230 1 3.86696 -4.85472 -1.79759
1377 1 4.97107 -4.97927 -1.59828
1870 1 4.67412 -5.59099 -2.4061
2772 2 5.95654 -4.79447 -2.49718
3232 2 6.13378 -4.49861 -1.85729
193 1 -6.18965 -3.87522 -1.72423
1906 1 -5.83242 -4.22362 -2.48952
2155 1 -6.84255 -3.69511 -2.27583
1763 1 -6.65422 -2.87242 -1.9853
3438 2 -5.8117 -3.2805 -2.68898
2594 1 -4.9367 -4.0261 -2.3047
739 1 -4.55449 -3.53768 -2.79017
3340 2 -5.37691 -2.85253 -2.36603
2410 1 -4.55027 -3.47079 -1.81264
2227 1 -5.48341 -3.51005 -1.5146
397 1 -4.17962 -2.88943 -2.1861
2819 2 -3.41888 -3.74444 -2.45226
3352 2 -3.22379 -3.30012 -1.91372
1479 1 -2.16548 -3.56952 -2.58952
1121 1 -1.94349 -3.65447 -1.79263
2742 2 -2.6716 -3.08146 -1.45824
2173 1 -1.79836 -2.87052 -2.08683
1628 1 -1.04457 -3.31189 -2.20593
2158 1 -0.0946603 -3.9848 -2.7217
1308 1 -0.117532 -3.24133 -2.40342
959 1 -0.447724 -2.99904 -1.65133
2203 1 0.424053 -3.65977 -2.12975
2637 1 0.423289 -2.82376 -1.86539
961 1 1.23966 -3.93022 -1.81691
3390 2 1.56159 -2.94265 -2.31958
2182 1 3.00176 -4.00521 -1.47353
1675 1 2.0621 -3.90913 -1.88475
827 1 2.28282 -4.08142 -2.6222
2341 1 2.85986 -3.16175 -1.94529
2817 2 3.53447 -3.87842 -2.42957
857 1 3.83855 -2.83075 -2.78826
3476 2 4.0098 -3.46871 -1.91004
600 1 5.03156 -4.09422 -1.98964
813 1 5.50666 -3.82965 -1.41892
2306 1 5.55482 -3.79398 -2.71302
2200 1 4.91724 -4.12498 -2.71804
427 1 4.62987 -3.28293 -2.77171
2096 1 5.35647 -3.15672 -1.948
3133 2 6.64147 -3.92188 -1.49705
2351 1 6.09519 -3.43468 -2.28304
887 1 6.60334 -2.83303 -1.80568
1278 1 -6.43977 -2.17567 -2.22707
912 1 -5.92903 -1.4226 -1.7471
3034 2 -5.12734 -2.44094 -1.80165
2561 1 -5.28027 -1.59014 -2.43906
950 1 -3.57884 -2.08501 -2.07002
842 1 -4.38708 -1.93409 -2.53301
1171 1 -3.56896 -2.57774 -2.77674
1426 1 -2.62339 -2.17051 -2.32111
571 1 -2.87004 -1.81317 -1.54787
3332 2 -0.700808 -2.08026 -2.41174
6 1 -1.32221 -1.49674 -1.40939
2400 1 -1.89515 -1.93765 -2.03773
3046 2 -0.242807 -1.85297 -1.94965
907 1 0.241085 -2.5898 -2.64188
3399 2 0.107442 -1.46803 -1.45733
765 1 1.54061 -1.80814 -2.40413
1920 1 0.695374 -1.73701 -2.79494
1733 1 0.848733 -2.12918 -2.09717
2025 1 2.87065 -1.86629 -2.10886
1333 1 3.09501 -2.57465 -2.64686
3072 2 1.97971 -2.58167 -1.71005
2630 1 2.41709 -1.59116 -2.65203
1663 1 3.32917 -1.57832 -1.43039
606 1 4.32371 -2.26129 -1.994
2163 1 3.57743 -2.37727 -1.89027
2815 2 3.72438 -1.48794 -2.80896
449 1 5.05285 -2.52443 -2.38969
1127 1 5.11641 -1.77883 -2.70866
685 1 5.73882 -2.52346 -1.66082
1620 1 5.17281 -1.76132 -1.91634
3187 2 6.32384 -2.4609 -2.75289
3525 2 6.40247 -1.88284 -2.23902
3328 2 6.88079 -1.45933 -1.79528
83 1 -6.44772 -0.302141 -2.68875
2271 1 -6.43378 -1.10541 -2.4035
2636 1 -5.87047 -0.466715 -1.79129
3592 2 -5.28148 -0.719644 -2.81517
2205 1 -4.67548 -1.21339 -1.81473
3246 2 -4.98609 -0.252339 -2.31499
2650 1 -3.75247 -0.520862 -1.54345
1023 1 -3.72972 -1.33747 -1.7441
1923 1 -4.27226 -1.05599 -2.51135
1143 1 -3.81652 -0.257115 -2.53719
3214 2 -3.0455 -1.08154 -2.57514
2774 2 -2.51992 -0.812044 -2.0313
3265 2 -2.18855 -0.696314 -1.44326
2007 1 -1.32212 -0.0187616 -1.95035
271 1 -1.83867 -0.52762 -2.79863
219 1 -1.28859 -1.19055 -2.80473
360 1 -1.31901 -0.969937 -1.99964
1889 1 -0.544978 -0.713675 -2.5717
2688 1 -0.618403 -0.622185 -1.76982
2654 1 0.26174 -0.501063 -1.86506
552 1 0.452578 -0.570444 -2.6386
3408 2 1.59825 -0.649132 -2.76527
2475 1 0.809758 -1.20475 -2.1753
608 1 1.23745 -0.645788 -1.60187
2910 2 1.95176 -0.316252 -2.23865
2032 1 2.64644 -0.945108 -1.59879
1430 1 2.89693 -0.780457 -2.54188
2192 1 2.00185 -1.38406 -1.76765
215 1 3.21535 -0.491799 -1.86869
2976 2 4.0461 -1.23956 -2.21083
3228 2 4.62136 -0.828324 -1.98934
1875 1 4.57799 -0.217042 -2.79887
3319 2 4.91968 -0.63061 -1.44722
759 1 5.65837 -0.00669288 -2.19667
1189 1 7.04167 -0.0765121 -1.8368
1612 1 6.58883 -0.649767 -2.38884
823 1 5.79906 -0.918879 -2.0681
1045 1 6.31402 -0.0650522 -1.64516
2600 1 -6.35214 -6.59448 -1.2703
862 1 -6.39578 -5.68631 -1.13916
2292 1 -6.44636 -6.73493 -0.494693
2428 1 -5.66188 -5.85511 -0.804236
3314 2 -4.6305 -6.59962 -0.214603
1001 1 -5.74095 -6.11771 -0.00719609
3082 2 -5.23354 -6.72697 -0.659676
1751 1 -4.05017 -5.95287 -0.876793
1391 1 -3.66691 -6.74585 -0.749818
2632 1 -3.3355 -5.98081 -0.342411
908 1 -2.07749 -6.44453 -1.0893
47 1 -2.48919 -6.24764 -0.161079
112 1 -2.87459 -6.70595 -0.957193
1516 1 -0.898868 -6.97838 -0.021844
2030 1 -1.59941 -6.93594 -0.629041
3238 2 -0.657738 -6.43444 -1.18062
1704 1 -1.64233 -6.11262 -0.255982
2304 1 -1.67708 -5.76468 -1.1892
2960 2 -0.137866 -6.21853 -0.686571
1532 1 0.57409 -6.89573 -1.02387
3504 2 0.173305 -5.77632 -0.0862325
296 1 0.92011 -6.77179 -0.235314
1703 1 1.24462 -6.06942 -0.687093
1613 1 2.99083 -6.51832 -1.18139
1217 1 1.98607 -5.99557 -1.06501
2862 2 2.34113 -6.92441 -0.466842
963 1 3.03615 -5.71904 -0.824445
66 1 3.51795 -6.13111 -0.461611
30 1 3.57398 -6.95838 -0.693085
1593 1 4.46019 -6.9222 -1.13033
16 1 4.69997 -6.40737 -0.518509
2697 1 5.56378 -6.7015 -0.730255
545 1 5.72236 -5.64748 -1.00524
1717 1 5.43996 -5.9397 -0.150507
1554 1 5.98871 -6.75166 -0.00077545
2936 2 6.63999 -6.3467 -0.897015
3547 2 6.87334 -5.86563 -0.459135
2581 1 -6.14047 -4.23494 -0.675408
1375 1 -6.42978 -4.69302 -1.21597
3250 2 -6.69902 -5.45137 -0.0312131
3217 2 -4.81101 -4.45693 -0.950842
1564 1 -5.70628 -5.04249 -0.454779
2123 1 -5.11643 -5.37504 -0.126947
1444 1 -4.82348 -5.57978 -0.998451
1480 1 -3.68438 -4.66345 -0.775305
1396 1 -4.05094 -5.22584 -0.190372
3149 2 -3.05147 -5.60072 -1.32541
3427 2 -2.52558 -5.24965 -0.85309
2898 2 -2.12216 -4.87368 -0.285619
1905 1 -3.17684 -4.3173 -0.260339
1193 1 -1.14821 -5.4979 -0.280618
2585 1 -0.748463 -5.38231 -1.05666
80 1 -0.942287 -4.54724 -0.629625
1578 1 -1.54302 -4.82226 -1.26183
819 1 -0.419259 -4.60721 -0.0441035
1260 1 0.0184458 -4.98468 -0.71444
2023 1 0.749307 -4.67885 -1.37724
67 1 1.01083 -4.35318 -0.451546
2492 1 0.763007 -5.4852 -1.13125
689 1 1.40033 -5.1511 -0.462038
1134 1 2.3466 -5.50078 -0.325582
3338 2 2.34143 -4.61493 -0.944871
2726 1 3.34285 -5.11407 -0.525709
1857 1 4.35482 -4.32605 -1.37536
3086 2 4.32589 -5.48104 -0.922079
1126 1 3.60505 -4.39935 -0.954832
1016 1 3.92476 -4.48933 -0.0918896
603 1 5.60337 -4.89559 -0.958956
3257 2 4.70421 -5.07404 -0.482386
870 1 6.92902 -4.54468 -0.568364
375 1 6.81316 -5.18647 -1.40006
2455 1 6.25944 -4.98663 -0.486011
1812 1 -6.62397 -4.10642 -0.00692229
3577 2 -6.77273 -3.1273 -0.428217
3047 2 -6.96621 -3.44426 -1.01925
2603 1 -6.21221 -2.89456 -1.36085
3357 2 -4.55342 -4.01283 -0.323256
1148 1 -4.90214 -3.17752 -1.08244
267 1 -5.65489 -3.42214 -0.631723
839 1 -3.93517 -3.82898 -1.35475
1599 1 -4.10933 -3.13934 -0.757378
2693 1 -3.4374 -3.67778 -0.834143
2520 1 -2.77847 -4.1268 -1.06383
2063 1 -2.60008 -3.63469 -0.392242
1900 1 -3.19711 -2.93205 -0.429312
264 1 -1.18992 -3.83976 -0.188087
825 1 -1.90494 -3.92812 -0.891233
1227 1 -1.25331 -3.44922 -1.22182
2166 1 -0.711713 -3.04935 -0.686676
2962 2 -0.0411827 -4.05822 -1.20188
2981 2 0.111893 -3.58835 -0.518643
3418 2 0.593205 -3.15308 -0.0718396
216 1 1.66909 -3.73335 -0.0513318
1212 1 1.57294 -3.9075 -0.894005
2446 1 1.30768 -2.95629 -0.967973
1718 1 0.765225 -3.4263 -1.38921
328 1 1.87601 -2.87961 -0.405098
3182 2 2.7116 -4.14858 -0.249776
2294 1 2.66782 -2.90893 -0.568197
2547 1 2.28182 -3.39182 -1.08784
1429 1 3.29931 -2.95267 -1.15148
645 1 4.17636 -3.65208 -0.398373
1418 1 3.56287 -3.63735 -0.779693
2917 2 4.42935 -3.10258 -1.35496
273 1 4.98952 -4.01724 -0.873502
530 1 5.31872 -3.53003 -0.241761
2258 1 5.97509 -4.08186 -0.422083
1312 1 6.24851 -2.8609 -0.474177
207 1 5.84368 -3.25837 -1.05229
2538 1 6.50322 -3.49313 -0.0948431
150 1 -6.75216 -2.16798 -0.460132
2031 1 -6.16884 -2.05888 -1.25921
1764 1 -5.98732 -1.79365 -0.0832092
1873 1 -4.82915 -2.73275 -0.169095
3243 2 -4.67422 -2.04332 -1.25024
1015 1 -5.60529 -2.29161 -0.649109
831 1 -5.2747 -1.54546 -0.589503
951 1 -3.83106 -2.56615 -0.183218
3548 2 -4.16886 -1.63484 -0.567521
1199 1 -3.82397 -2.53812 -1.3619
3272 2 -2.19526 -2.75648 -0.93141
1926 1 -2.74097 -2.06031 -0.141058
143 1 -3.03188 -2.18717 -0.913755
452 1 -2.14922 -1.67044 -1.00172
1440 1 -1.23901 -2.3013 -1.34418
3536 2 -1.63599 -2.60086 -0.32855
914 1 -0.742783 -1.7033 -0.683018
2136 1 -0.120689 -2.01395 -0.306983
53 1 -0.387079 -2.33477 -1.06818
353 1 0.3237 -2.65676 -1.03116
170 1 0.78972 -2.16707 -0.41845
826 1 1.75284 -2.00968 -0.116139
2459 1 1.22063 -2.14409 -1.18964
3450 2 2.99754 -1.59818 -0.52405
3062 2 2.51189 -1.98271 -1.00424
370 1 3.46514 -2.59032 -0.235814
1867 1 4.07797 -1.77185 -1.22555
236 1 4.16926 -2.81054 -0.0655829
966 1 3.82129 -2.3934 -0.769323
1877 1 4.42694 -1.84556 -0.495021
2735 2 4.86849 -2.74507 -0.91309
2761 2 5.34446 -2.4188 -0.593141
673 1 5.06486 -1.62377 -1.04562
187 1 6.53659 -1.43325 -0.599919
1791 1 5.81408 -1.62307 -1.33319
2320 1 6.21668 -2.22332 -1.02962
1477 1 7.01735 -2.42625 -1.15247
2938 2 -6.80503 -1.09651 -1.24004
3483 2 -6.31858 -0.890805 -0.602416
3429 2 -5.95396 -0.533927 -0.0230485
628 1 -5.35052 -1.07072 -1.19115
2289 1 -4.80584 -0.831763 -0.327506
1303 1 -5.51846 -0.132557 -1.13933
1218 1 -4.50073 -0.747544 -1.05112
2604 1 -5.00328 -0.0727293 -0.484132
562 1 -3.92155 -0.252538 -0.473498
622 1 -3.33368 -0.497345 -0.842101
1766 1 -3.04452 -1.31045 -0.847121
900 1 -2.65129 -0.59694 -0.233994
447 1 -2.23936 -1.30308 -0.0139522
659 1 -0.712408 -0.833473 -0.91488
3322 2 -1.7384 -0.307419 -0.895524
2285 1 -1.61742 -1.24764 -0.565617
2612 1 -0.923365 -0.937276 -0.0611709
2301 1 -0.23835 -0.433038 -0.300228
1520 1 -0.115707 -0.00922745 -0.981051
3164 2 0.435554 -1.09469 -0.891794
1052 1 1.6717 -1.14853 -0.557367
2602 1 1.39399 -1.3521 -1.35568
2905 2 0.785799 -0.638913 -0.354228
498 1 0.811527 -0.00398223 -1.23572