ITEM: TIMESTEP
0
ITEM: NUMBER OF ATOMS
3594
ITEM: BOX BOUNDS pp pp pp
-7.5555208667982852e+00 7.5555208667982852e+00
-7.5555208667982852e+00 7.5555208667982852e+00
-7.5555208667982852e+00 7.5555208667982852e+00
ITEM: ATOMS id type x y z
231 1 -7.15074 -6.43017 -6.71606
814 1 -7.47255 -6.82873 -7.49452
114 1 -6.50567 -7.12115 -7.05981
930 1 -6.03742 -6.41342 -6.96152
2254 1 -5.93424 -7.55108 -6.30946
2969 2 -5.10824 -7.24294 -7.18077
1055 1 -4.05994 -7.28669 -6.75017
3543 2 -4.92883 -6.59558 -7.38103
2747 2 -2.95247 -6.42684 -6.33486
3248 2 -3.54963 -6.50982 -6.98575
2198 1 -3.50786 -7.44563 -7.54635
3339 2 -2.38751 -6.68048 -7.33385
3205 2 -2.41229 -6.77293 -6.56996
700 1 -1.26011 -6.42447 -6.84012
2130 1 -0.595673 -6.59434 -6.39743
2014 1 -1.12683 -7.46636 -7.13789
1588 1 -0.249536 -6.72741 -7.02688
2591 1 -7.10276 -5.52 -7.37307
3403 2 -5.94034 -5.46233 -7.03093
1281 1 -4.64922 -5.7018 -6.85759
740 1 -3.56941 -5.30557 -6.49954
513 1 -2.79289 -5.53555 -7.04108
983 1 -3.58118 -5.31458 -7.29354
907 1 -2.10932 -5.48198 -6.82115
664 1 -1.79595 -5.88144 -6.30332
210 1 -1.01569 -5.79508 -6.36453
3382 2 -0.050539 -5.37497 -6.5594
1427 1 -6.63054 -3.97597 -7.55084
2465 1 -6.83338 -4.69792 -6.93045
272 1 -7.55412 -4.0661 -7.34013
2476 1 -5.30557 -5.03007 -6.55789
699 1 -6.06545 -4.52714 -6.32268
2057 1 -4.9824 -4.32232 -7.12898
2730 1 -4.34061 -5.00336 -7.43467
2160 1 -2.54023 -4.76898 -7.17228
526 1 -3.48916 -4.46276 -6.92009
1938 1 -2.30752 -3.92017 -7.28879
1319 1 -1.45266 -4.43226 -7.12184
1489 1 -1.19748 -3.80052 -6.52231
1640 1 -0.488625 -4.36581 -7.11109
864 1 -1.04423 -4.96453 -6.7203
922 1 -7.1215 -3.69702 -6.564
1749 1 -7.06165 -2.63676 -7.38909
2743 2 -6.1009 -2.98026 -6.91978
3039 2 -5.57714 -3.5184 -6.34742
1996 1 -4.77046 -2.78387 -6.5608
355 1 -4.08885 -3.70564 -6.78151
503 1 -4.60662 -3.32209 -7.17805
704 1 -3.55209 -3.03756 -6.9627
776 1 -2.80288 -3.24822 -7.01571
1381 1 -2.056 -3.46664 -6.55421
3047 2 -1.00453 -2.79911 -6.83056
2827 2 -0.1263 -3.16675 -6.4395
2366 1 -0.0908153 -2.64611 -7.48402
3344 2 -1.05071 -3.24044 -7.51155
1611 1 -7.36377 -1.59876 -6.72919
921 1 -5.5068 -1.93865 -6.58514
2553 1 -4.03682 -2.3541 -6.8865
1417 1 -4.22076 -1.73748 -6.6494
1658 1 -4.97034 -2.07063 -7.33065
3389 2 -2.95718 -1.65192 -7.14653
940 1 -2.49596 -2.49322 -6.37592
2609 1 -1.88909 -2.36809 -7.19275
2326 1 -1.40117 -1.48856 -7.31468
1769 1 -0.417524 -1.38284 -7.192
1096 1 -0.638214 -1.90997 -6.79339
724 1 -7.12474 -1.13722 -7.36322
2971 2 -7.09359 -0.250333 -6.47257
849 1 -6.21086 -1.06093 -6.92574
1104 1 -5.90399 -0.439207 -6.89991
2592 1 -5.02021 -1.04665 -7.37714
552 1 -4.25306 -0.936924 -6.83314
3283 2 -3.61644 -0.104305 -7.40598
1310 1 -3.37637 -0.00936002 -6.30136
287 1 -3.63912 -0.879234 -6.38053
2942 2 -3.32885 -0.824677 -7.41695
1871 1 -2.14014 -1.19006 -7.15039
670 1 -2.47972 -0.418127 -6.84834
2537 1 -1.55872 -0.0157286 -6.75755
931 1 -0.618854 -0.0755336 -6.58699
1110 1 -6.53031 -7.06186 -6.23449
798 1 -6.56355 -7.37595 -5.16988
426 1 -7.12296 -7.1687 -5.65377
1956 1 -5.32778 -6.97753 -5.97464
3493 2 -6.04138 -6.35126 -5.07181
1284 1 -5.66299 -6.39487 -6.29168
2229 1 -5.00455 -7.33406 -5.35454
819 1 -3.04866 -7.52308 -5.72617
317 1 -3.76175 -6.90324 -5.73027
3303 2 -1.97319 -6.95472 -5.92165
3468 2 -1.36832 -6.93271 -5.53394
2520 1 -0.321374 -7.14361 -5.40534
1380 1 -0.0849408 -6.47212 -5.71824
1335 1 -6.78252 -6.28017 -5.95288
70 1 -7.07178 -5.03801 -5.36339
1137 1 -7.29593 -5.41217 -6.21712
3028 2 -6.16068 -5.56001 -6.17189
1672 1 -4.65161 -5.4938 -5.79944
408 1 -4.76562 -6.15203 -6.16382
93 1 -4.17532 -5.08661 -5.44338
1701 1 -5.01978 -6.276 -5.07438
2001 1 -3.8759 -5.89453 -5.71211
1709 1 -2.94964 -5.31207 -5.49676
212 1 -2.92081 -6.28449 -5.22099
1266 1 -2.08292 -5.85358 -5.47241
2902 2 -0.169011 -5.16266 -5.40265
1215 1 -0.852996 -5.98398 -5.53512
2454 1 -6.91272 -4.3802 -5.90687
2056 1 -6.17954 -4.30647 -5.36281
3384 2 -5.2421 -4.11575 -5.94716
668 1 -5.46261 -4.98371 -5.31415
3290 2 -4.50041 -4.62621 -6.25259
1514 1 -4.1925 -3.88732 -5.1008
3222 2 -3.13385 -4.39916 -6.00355
2834 2 -2.22122 -4.57356 -6.27637
1829 1 -1.48937 -4.99615 -5.66677
3270 2 -0.391039 -4.49035 -6.10473
3287 2 -7.30096 -3.48648 -5.17319
996 1 -6.39692 -3.47077 -5.75361
329 1 -6.92802 -2.65352 -6.11117
1535 1 -4.54011 -2.87037 -5.13441
1592 1 -4.12676 -2.61554 -5.95284
1430 1 -3.78889 -3.39922 -5.72118
2864 2 -4.75287 -3.58741 -6.00956
1569 1 -3.48565 -2.53455 -6.11482
3278 2 -2.89601 -3.71258 -6.05095
2873 2 -2.72511 -2.64086 -5.30653
39 1 -1.9558 -3.67148 -5.44714
589 1 -0.744371 -3.08186 -5.67655
3203 2 -6.49131 -1.5901 -5.65746
151 1 -5.37811 -1.73953 -5.20948
2670 1 -5.10474 -2.39809 -5.68306
68 1 -6.07751 -2.44872 -6.06226
605 1 -3.96395 -2.2608 -5.18758
3073 2 -4.60307 -1.29359 -5.96558
1180 1 -2.52466 -1.57725 -5.66312
1323 1 -3.32036 -1.54934 -5.38358
2134 1 -3.46908 -1.64869 -6.26966
682 1 -1.54686 -1.81415 -5.20918
1699 1 -1.8152 -1.93784 -6.23489
821 1 -1.22233 -2.28508 -5.68987
2403 1 -0.359262 -2.16585 -5.64884
3335 2 -6.75943 -0.895019 -6.03355
2830 2 -7.48431 -0.694482 -5.683
3161 2 -5.10551 -0.395581 -5.87987
1596 1 -5.30518 -0.908856 -5.1685
1897 1 -5.61562 -1.24836 -6.18587
652 1 -6.27603 -0.0693967 -5.67687
1327 1 -3.9416 -0.692209 -5.614
2533 1 -4.42039 -0.467522 -5.05102
3228 2 -3.27667 -0.0573217 -5.13055
1963 1 -2.15732 -0.878878 -5.33256
334 1 -2.42501 -0.720136 -6.18832
2586 1 -1.42677 -0.098587 -5.3863
2597 1 -2.23084 -0.0412137 -5.66205
1087 1 -0.401844 -0.114176 -5.44973
3350 2 -1.14941 -1.24127 -6.29544
2889 2 -0.659434 -1.01112 -5.79408
3354 2 -7.36407 -6.83341 -4.40171
2304 1 -5.62111 -7.23628 -3.94273
1958 1 -6.21988 -6.65203 -3.95483
169 1 -4.51891 -7.51284 -4.45379
1245 1 -5.02464 -6.8362 -4.31228
2279 1 -3.14301 -7.29954 -3.9063
2594 1 -3.12375 -6.91769 -4.87599
613 1 -1.58726 -6.63973 -4.41816
2417 1 -2.31012 -6.6018 -4.7097
3093 2 -2.12266 -7.49911 -3.88653
2256 1 -0.348986 -6.75509 -4.36103
3320 2 -6.91938 -6.22126 -4.89528
1830 1 -6.35012 -5.24292 -4.58179
1792 1 -6.89262 -5.92172 -3.79893
247 1 -5.51385 -5.66404 -4.55889
3082 2 -4.39935 -5.57894 -4.43437
3048 2 -3.84891 -6.28661 -4.44551
1703 1 -2.94052 -5.08756 -4.08735
2337 1 -3.20786 -5.52408 -4.7104
1106 1 -2.70248 -6.27039 -4.02952
1014 1 -2.13069 -5.34877 -4.81093
2069 1 -1.38773 -5.73261 -4.79252
2478 1 -0.633002 -6.26575 -3.81785
1984 1 -6.63928 -3.98192 -4.30907
551 1 -5.73816 -4.28751 -4.41395
644 1 -4.93497 -4.44091 -4.91164
3592 2 -4.73304 -4.92076 -3.98004
3594 2 -4.36487 -3.91707 -4.06043
1838 1 -3.56349 -4.61443 -4.889
1638 1 -2.78729 -3.88348 -4.80534
1484 1 -1.76554 -4.53459 -4.0789
1990 1 -0.742663 -4.90723 -4.37842
1679 1 -1.15557 -3.8792 -4.62312
107 1 -0.617115 -4.32438 -3.79271
3002 2 -6.63517 -2.53696 -4.66254
2364 1 -7.4639 -3.37377 -4.26989
2017 1 -6.08348 -3.47442 -4.59584
2632 1 -5.46342 -3.62643 -3.78619
1093 1 -5.05677 -3.32818 -4.94782
1914 1 -4.82474 -2.79343 -3.94431
3300 2 -3.8346 -3.31141 -4.30303
3159 2 -3.21951 -2.91945 -4.5805
2922 2 -3.69045 -2.61052 -4.00713
447 1 -2.06843 -3.13979 -4.26159
974 1 -1.61278 -2.59816 -4.66999
167 1 -0.0424508 -3.72276 -4.23295
73 1 -0.876024 -3.22954 -4.24125
2173 1 -0.545638 -2.96366 -4.85197
3001 2 -7.32757 -1.54905 -4.44367
2583 1 -5.90273 -1.39776 -4.29903
3033 2 -5.84185 -2.44849 -4.16154
759 1 -3.90057 -1.34176 -4.6797
1952 1 -4.6079 -1.81942 -4.51995
1063 1 -3.31603 -1.52457 -3.93763
1820 1 -2.11025 -1.6147 -4.50462
2548 1 -0.0576547 -1.84022 -4.99626
2642 1 -0.00106074 -1.78735 -4.08768
2371 1 -0.921445 -2.24313 -4.72255
2219 1 -6.50021 -1.10633 -4.712
1368 1 -6.94713 -0.0640946 -5.015
2404 1 -6.86974 -0.0487566 -4.13175
2226 1 -5.50127 -0.712976 -4.29684
653 1 -5.95785 -0.219134 -4.74481
1216 1 -4.42269 -0.910124 -3.7815
2378 1 -2.89246 -1.25639 -4.68498
2944 2 -3.61051 -0.32869 -4.29201
1671 1 -2.1324 -0.468057 -4.38242
3331 2 -0.65516 -1.01957 -5.00739
3379 2 -0.600118 -0.647031 -4.23129
143 1 -7.12599 -6.53085 -3.18136
743 1 -6.46366 -7.12759 -3.35714
3433 2 -5.27428 -6.532 -2.65073
2990 2 -6.01648 -6.33488 -2.71969
1429 1 -4.11436 -7.2023 -3.5162
422 1 -3.80297 -7.52651 -2.68704
3531 2 -4.87629 -7.13785 -2.98727
2690 1 -2.96776 -6.34317 -2.57558
1113 1 -3.32193 -6.75514 -3.20553
1444 1 -1.88905 -6.56035 -3.2844
995 1 -0.786954 -6.63834 -3.08237
1393 1 -0.76801 -7.22388 -3.72208
1622 1 -6.60703 -5.38465 -3.08869
738 1 -7.2977 -5.92933 -2.74999
894 1 -5.85122 -5.94142 -3.7419
961 1 -5.92109 -5.12047 -3.46157
2019 1 -5.28641 -5.5145 -2.52644
1313 1 -4.03114 -5.62868 -3.21975
1590 1 -5.02139 -6.15333 -3.69888
2611 1 -4.05536 -6.26884 -3.35362
1883 1 -3.02737 -5.75166 -3.24118
2675 1 -3.48931 -5.05499 -2.83621
2707 1 -2.09653 -5.88973 -2.7577
2867 2 -1.48879 -5.07505 -3.193
2901 2 -1.67695 -5.77196 -3.76611
176 1 -0.256205 -5.51922 -3.73578
501 1 -1.208 -6.11974 -2.54263
233 1 -0.487996 -5.56026 -2.83985
3311 2 -6.86319 -4.59089 -3.46945
1421 1 -7.23186 -3.87948 -2.86604
905 1 -6.20226 -3.78222 -3.22481
1403 1 -5.13247 -4.3095 -3.29706
2013 1 -4.26251 -4.54548 -2.9067
2509 1 -3.38608 -4.03602 -3.47037
1397 1 -2.63716 -4.47777 -2.71006
800 1 -2.36948 -4.30697 -3.76058
19 1 -2.07557 -3.98364 -2.69718
955 1 -0.0805531 -4.49089 -3.1365
1092 1 -7.01899 -2.99435 -3.42059
2936 2 -5.95526 -2.60525 -3.25532
3058 2 -5.50784 -2.66691 -2.59625
2395 1 -4.58891 -3.57388 -3.10803
2693 1 -4.52227 -2.77578 -2.97302
105 1 -3.70626 -3.13064 -3.21959
236 1 -2.61878 -2.98987 -3.07728
585 1 -2.79395 -3.35374 -3.72645
2607 1 -1.88409 -2.6017 -2.63907
1614 1 -1.53722 -3.51238 -3.27309
3551 2 -0.258324 -2.69966 -3.67298
502 1 -0.37408 -3.59626 -3.25687
3326 2 -6.79486 -1.94021 -3.54969
2516 1 -5.29134 -1.4565 -3.55376
799 1 -6.123 -1.47389 -2.78172
1707 1 -4.05323 -1.78012 -3.58432
1798 1 -3.21379 -2.32049 -3.16991
3057 2 -2.61329 -1.64391 -3.03492
508 1 -3.6578 -1.72224 -2.55697
3032 2 -1.27437 -2.08984 -3.53789
2799 2 -2.22919 -1.95702 -3.60753
261 1 -0.43945 -1.61642 -2.82879
3010 2 -1.06175 -1.30053 -3.76137
1486 1 -6.36301 -0.835571 -3.59561
1549 1 -6.35487 -0.269259 -3.14049
2461 1 -7.21565 -1.03659 -3.26563
1071 1 -7.09231 -0.0440981 -3.01034
2151 1 -5.40834 -0.369944 -3.42051
3556 2 -4.70018 -1.1819 -2.52099
1252 1 -2.89051 -0.801795 -3.68235
474 1 -3.51622 -1.06365 -3.35547
3153 2 -2.77534 -0.636369 -2.60254
2087 1 -2.02165 -0.895745 -2.83469
943 1 -1.29949 -0.0404948 -2.53822
1925 1 -1.62781 -0.353093 -3.59318
1568 1 -1.45876 -1.1424 -2.5658
2078 1 -0.620398 -0.150205 -3.20717
2486 1 -0.805305 -0.804144 -2.74214
1832 1 -6.98171 -6.78407 -1.47707
726 1 -7.36848 -6.9873 -2.2326
1738 1 -6.05982 -6.57977 -1.44388
723 1 -6.16414 -7.18937 -1.97017
574 1 -3.8285 -6.70145 -1.34265
2804 2 -4.81318 -6.83875 -2.12674
3360 2 -4.86431 -7.46048 -1.61608
2182 1 -3.75338 -6.84718 -2.45218
3258 2 -2.69865 -7.04937 -1.73959
3421 2 -2.35303 -7.55146 -2.25621
120 1 -1.74314 -6.60752 -2.21228
2307 1 -1.54261 -6.8743 -1.42111
489 1 -1.19426 -7.15385 -2.07672
1005 1 -0.609639 -7.52474 -2.18825
1983 1 -0.215983 -7.39455 -1.34698
900 1 -6.35665 -5.07915 -1.5524
2932 2 -6.56349 -6.12728 -2.22426
3204 2 -7.47275 -5.79132 -1.76397
1704 1 -5.87032 -5.74972 -1.57763
2563 1 -4.32816 -5.8567 -2.40001
2725 1 -3.97767 -5.90455 -1.62098
1073 1 -4.89507 -5.87719 -1.66908
82 1 -4.17412 -5.28157 -2.14135
2883 2 -3.04174 -5.95438 -1.71115
2541 1 -2.04339 -5.94131 -1.81782
239 1 -2.12121 -5.2021 -1.40383
3026 2 -0.876148 -5.82824 -1.72951
499 1 -0.240737 -5.04279 -2.05775
3077 2 -0.0819691 -6.27175 -2.1681
1385 1 -6.65441 -4.94158 -2.28101
520 1 -7.17945 -4.40292 -2.05727
1095 1 -6.57323 -4.233 -1.56189
1129 1 -5.53982 -4.84759 -1.91565
831 1 -6.00009 -4.37805 -2.48218
540 1 -4.65861 -4.94414 -1.79746
2577 1 -4.0689 -4.06559 -2.23917
1581 1 -2.9016 -4.6577 -1.43611
1771 1 -3.58626 -4.70044 -1.7704
1447 1 -2.21946 -4.96726 -2.35158
456 1 -1.94667 -4.46876 -1.8964
309 1 -1.2868 -4.93389 -2.14581
1169 1 -0.976043 -4.12944 -2.50576
2124 1 -6.94283 -3.58309 -1.98943
2343 1 -6.77456 -2.61876 -2.38856
2340 1 -6.21706 -3.44108 -2.47046
162 1 -5.81523 -3.4652 -1.42594
492 1 -5.20609 -2.66879 -1.52825
2033 1 -3.95753 -2.54603 -2.48912
2661 1 -4.38741 -3.07314 -1.95164
2500 1 -4.98723 -3.76457 -1.89691
2985 2 -3.27191 -3.38009 -2.06013
2580 1 -2.69434 -2.61621 -1.49019
2732 2 -2.13579 -3.71574 -1.52547
1190 1 -1.49499 -3.30054 -2.29319
191 1 -1.05595 -2.55126 -2.24101
1700 1 -0.362284 -3.13733 -2.21685
3199 2 -0.912438 -2.74527 -1.29888
1264 1 -0.831766 -3.77084 -1.86379
847 1 -6.52689 -1.5886 -1.74468
1728 1 -7.05692 -1.74848 -2.30833
1259 1 -6.3538 -2.48548 -1.61353
260 1 -7.45545 -2.31966 -1.70542
433 1 -5.95923 -1.30474 -1.92711
458 1 -4.38343 -1.85539 -1.56175
54 1 -3.53651 -2.25524 -1.83927
2485 1 -3.18833 -1.4748 -1.90319
858 1 -2.44614 -1.43554 -1.66734
1825 1 -2.51605 -2.21928 -2.21589
1254 1 -1.72097 -1.90424 -2.00572
1510 1 -0.0366082 -2.28037 -2.32217
378 1 -0.490584 -1.66789 -1.84738
3244 2 -7.50949 -0.31892 -1.93845
3191 2 -7.4836 -0.957117 -1.30543
131 1 -6.80449 -0.935918 -2.44114
1713 1 -5.83863 -0.457273 -2.5009
1932 1 -6.24983 -0.0943558 -1.93078
33 1 -5.50043 -0.185505 -1.51471
626 1 -3.95599 -0.964828 -1.50157
1200 1 -4.93732 -0.662628 -1.60752
2022 1 -4.34262 -0.163142 -1.90838
1885 1 -3.40398 -0.234543 -1.64736
1062 1 -3.69841 -0.70265 -2.25968
109 1 -2.00013 -0.48959 -1.64607
1737 1 -0.00548227 -0.370002 -2.46057
3219 2 -1.01767 -0.884987 -1.6625
200 1 -7.19236 -7.45068 -0.629302
3444 2 -6.1216 -6.3618 -0.239293
2389 1 -5.28994 -6.32663 -1.24124
2836 2 -5.69443 -6.95355 -0.753859
1101 1 -4.53675 -7.38815 -0.458872
795 1 -4.73137 -6.67953 -0.447529
512 1 -3.73471 -7.45991 -1.25692
2384 1 -3.68259 -6.67075 -0.534729
2596 1 -2.63123 -6.93319 -0.610058
45 1 -2.01489 -6.43849 -0.966472
3176 2 -1.42328 -7.24544 -0.253943
1135 1 -0.879425 -7.37749 -1.22697
2546 1 -0.270507 -7.5382 -0.313504
2158 1 -7.1936 -6.24214 -0.192856
59 1 -6.9086 -5.9652 -0.899852
2631 1 -7.09241 -5.13109 -0.0194327
3295 2 -5.9279 -5.62364 -0.317329
3575 2 -5.47516 -5.09686 -0.728139
3226 2 -4.68171 -5.36855 -0.378185
654 1 -4.42649 -6.24387 -1.01981
3455 2 -3.87187 -5.53763 -0.511522
2924 2 -2.95645 -5.85002 -0.0162228
2798 2 -3.14858 -5.71586 -0.776494
2699 1 -2.04105 -5.77772 -1.00963
320 1 -1.93317 -5.20232 -0.0916907
2683 1 -1.06156 -5.16084 -0.47263
2884 2 -1.06289 -6.29537 -0.600857
3131 2 -0.628679 -6.15339 -1.20427
476 1 -6.55182 -4.98865 -0.909773
71 1 -6.39715 -4.47626 -0.346691
2955 2 -7.41704 -4.95951 -1.08359
509 1 -5.43281 -4.1972 -1.18614
3268 2 -4.24282 -4.00758 -1.23806
3260 2 -4.28096 -4.77475 -0.695069
1819 1 -2.55685 -4.89678 -0.878311
608 1 -3.30122 -4.59141 -0.647919
2897 2 -1.83564 -4.01085 -0.327588
2341 1 -1.4365 -4.67952 -1.14657
1479 1 -0.444508 -4.10978 -0.333348
1554 1 -0.592928 -4.87141 -1.03572
2688 1 -0.793346 -4.12498 -1.11744
3341 2 -7.4998 -3.16392 -1.16722
3561 2 -7.13554 -3.75988 -0.780747
2083 1 -6.60449 -2.75401 -0.746523
1371 1 -6.15053 -3.70558 -0.444124
686 1 -5.57905 -2.90291 -0.761397
3243 2 -4.71238 -3.39512 -0.489303
753 1 -3.79971 -2.58922 -1.13729
3064 2 -3.5874 -3.60269 -0.793191
977 1 -3.24454 -2.82631 -0.505043
621 1 -2.1879 -2.78956 -0.137729
3229 2 -2.39666 -3.53894 -0.796467
2989 2 -1.58718 -2.90613 -1.1075
1633 1 -0.0719781 -3.22377 -1.10637
3088 2 -7.52667 -1.75622 -0.7695
3017 2 -5.40618 -1.60751 -1.15624
138 1 -6.08432 -2.11923 -0.56985
2691 1 -5.2867 -1.93243 -0.215511
2414 1 -4.20437 -2.14439 -0.531709
1580 1 -4.73698 -2.48825 -0.976945
3503 2 -3.36195 -1.34348 -0.64228
2701 1 -2.36485 -1.85967 -0.838163
973 1 -0.927042 -2.12671 -0.404184
522 1 -0.303938 -1.69756 -0.297447
2308 1 -0.20648 -1.90792 -1.24613
2696 1 -6.67438 -0.191246 -1.25388
3062 2 -6.96222 -1.14013 -0.805981
3149 2 -5.5016 -0.491782 -0.590425
3426 2 -6.20849 -0.96255 -0.588763
3207 2 -5.03271 -1.11151 -0.615552
2734 2 -4.21042 -0.707064 -0.570751
3573 2 -3.47756 -0.0803201 -0.420267
835 1 -2.79485 -0.551409 -1.14803
1477 1 -2.20847 -0.0474831 -0.509353
4 1 -2.2308 -1.08006 -0.139938
3495 2 -1.32597 -1.10681 -0.883283
1257 1 -0.0846261 -0.898331 -1.12669
1912 1 -7.12468 -6.98886 0.507711
1624 1 -7.43234 -7.4735 1.07302
1007 1 -5.11418 -7.04793 0.498559
1065 1 -6.04961 -7.0503 0.577447
3095 2 -4.01895 -7.39037 1.06264
431 1 -3.9035 -6.71363 0.179036
2724 1 -3.07066 -6.87577 0.484214
3154 2 -1.79927 -6.80046 0.304542
1163 1 -1.16348 -6.53286 1.16928
1475 1 -0.529299 -7.47983 0.920761
312 1 -0.375462 -6.814 0.358933
14 1 -6.96031 -5.85541 0.700966
1910 1 -5.18076 -5.64028 1.14275
1930 1 -5.99743 -5.39832 0.625785
988 1 -5.80742 -6.06851 1.17763
2681 1 -4.96046 -6.26499 0.211017
2112 1 -4.34222 -5.46476 0.712186
398 1 -3.65438 -6.10678 0.866335
597 1 -1.50164 -5.52578 0.921592
3526 2 -2.33458 -5.98148 0.530886
146 1 -0.841734 -5.49878 0.293075
2874 2 -7.12013 -3.83268 0.367027
1032 1 -5.22379 -4.51783 0.0662498
240 1 -6.06303 -4.25264 0.575755
1960 1 -4.55828 -4.01947 0.741836
2487 1 -3.96116 -4.14102 0.18615
222 1 -3.56232 -4.94437 0.692637
561 1 -2.77536 -4.56235 0.0048907
2940 2 -2.12814 -3.85289 0.637476
2079 1 -2.51364 -4.78217 0.858539
1787 1 -0.285864 -4.33117 0.904758
2896 2 -1.03581 -4.3699 0.370274
471 1 -7.35837 -2.52376 0.127532
659 1 -6.89896 -2.85551 1.22484
1128 1 -6.2968 -3.10819 0.183421
3130 2 -5.36228 -3.13531 1.22347
1634 1 -3.96875 -2.81495 0.153301
370 1 -4.20686 -3.44741 1.18759
2467 1 -3.98887 -2.77351 1.02382
3554 2 -5.02668 -2.9852 0.471393
2037 1 -3.17184 -3.34991 0.521241
1533 1 -1.436 -3.0157 0.312005
460 1 -0.923126 -3.42239 1.12272
3009 2 -6.74032 -1.38112 1.08012
2412 1 -6.6397 -1.78073 0.203281
1174 1 -7.53459 -2.23738 0.839588
2285 1 -5.87773 -2.47346 0.157908
3314 2 -5.37157 -2.25741 1.10582
1937 1 -5.78055 -1.37609 0.151534
2278 1 -4.49133 -1.91952 0.276411
2848 2 -3.06204 -1.94463 0.329366
576 1 -2.47724 -1.37179 1.17723
1334 1 -2.0056 -2.5142 0.831163
827 1 -1.82344 -1.85504 0.237287
1931 1 -0.902803 -2.46844 0.605902
956 1 -7.03483 -0.393654 0.332334
2539 1 -7.40582 -1.18319 0.208661
1000 1 -5.61167 -0.265217 0.504866
2259 1 -4.90878 -1.02385 0.569797
928 1 -3.92583 -1.03761 0.407074
707 1 -4.62954 -0.0984221 0.626651
687 1 -2.82046 -0.468515 0.0801552
40 1 -3.07528 -0.79191 0.857812
289 1 -3.71633 -0.138389 0.470713
2393 1 -1.979 -1.01503 0.767827
1507 1 -2.50663 -0.0658241 0.601244
1970 1 -1.65343 -0.379582 0.0528906
3076 2 -0.659267 -0.965686 0.589442
2570 1 -7.14785 -7.51001 2.02899
986 1 -7.03107 -6.71724 1.39192
3427 2 -7.48094 -6.48933 2.24106
392 1 -6.49108 -6.78871 2.41656
1857 1 -5.54282 -7.38647 2.49381
1639 1 -5.23309 -6.86823 1.81814
1408 1 -6.19984 -6.72998 1.5937
2044 1 -4.96829 -6.45076 1.26617
2765 2 -4.18754 -6.65998 1.56501
639 1 -3.41467 -6.94451 2.10008
2689 1 -2.84777 -6.46939 1.36848
1453 1 -2.79525 -7.24792 1.34985
241 1 -1.97919 -7.40075 1.57632
836 1 -0.266658 -7.12597 2.14524
1409 1 -1.21214 -7.38144 1.43944
2020 1 -0.458456 -6.34616 2.22052
2872 2 -6.95378 -5.67265 2.11876
2525 1 -6.0068 -5.34359 1.87988
1621 1 -5.14797 -5.09263 2.3346
1546 1 -4.31714 -5.04068 2.13449
1690 1 -4.99635 -6.0488 2.16181
3208 2 -3.14531 -5.04703 2.28271
2361 1 -2.66159 -6.17373 2.44329
2863 2 -3.72885 -6.16902 2.21804
616 1 -3.2424 -5.55047 1.34662
78 1 -2.02222 -5.96162 1.61389
2656 1 -2.02048 -5.18847 2.14808
2767 2 -0.247753 -5.12618 2.147
594 1 -1.24588 -6.14749 2.13856
3165 2 -0.881526 -5.252 2.24983
1884 1 -0.306184 -6.01371 1.33913
1181 1 -6.48566 -4.55623 2.33701
721 1 -6.42509 -3.96214 1.57339
875 1 -6.76518 -4.66333 1.2599
1615 1 -7.3711 -4.25316 2.24725
2494 1 -5.76883 -4.56531 1.72831
3544 2 -4.60518 -4.06497 2.20526
318 1 -2.55554 -4.05619 1.90347
1383 1 -3.52043 -3.90622 2.42861
803 1 -3.42664 -4.0884 1.3976
1723 1 -2.39662 -4.73971 1.54893
1650 1 -1.12166 -4.42635 1.50802
845 1 -0.64799 -3.85137 2.04337
525 1 -0.124468 -4.1614 1.73748
1571 1 -7.3805 -3.36387 1.73544
3369 2 -5.27452 -3.6382 1.91696
535 1 -6.25501 -3.12288 1.63775
1451 1 -3.45018 -3.07014 2.04682
64 1 -2.73577 -3.17905 1.49081
3118 2 -2.09966 -3.12829 2.42265
1132 1 -1.56433 -3.59816 1.70826
265 1 -1.20243 -2.54024 1.94713
17 1 -1.16332 -2.73591 1.30901
404 1 -0.480012 -2.87714 2.18726
387 1 -6.37076 -1.5981 2.47925
1558 1 -6.64742 -2.06235 1.65466
760 1 -5.87143 -2.38536 2.10333
2925 2 -5.41341 -1.63242 1.31838
1042 1 -4.63526 -2.49334 1.7869
15 1 -4.28469 -1.71606 1.26348
2727 1 -4.47065 -1.31903 1.94964
519 1 -4.98067 -1.89283 2.37294
3538 2 -3.47857 -2.01628 1.31338
3450 2 -3.33091 -2.10954 2.21042
746 1 -2.37848 -1.3193 2.00255
2837 2 -1.34341 -1.45221 2.01322
83 1 -2.34354 -2.25854 1.72264
1472 1 -0.205745 -2.2912 1.56619
1480 1 -0.0800169 -1.50972 2.2933
2861 2 -1.11289 -1.27332 1.30226
2885 2 -6.69138 -0.548182 1.36409
1177 1 -6.91487 -0.636166 2.40781
1835 1 -7.4585 -0.115551 1.6583
3494 2 -5.66739 -0.0392475 1.72055
982 1 -5.75085 -1.12212 2.26759
3445 2 -5.92492 -0.973985 1.28119
94 1 -4.71499 -0.464768 1.69573
3246 2 -3.38451 -0.851469 1.84698
386 1 -1.83285 -0.241195 1.39076
951 1 -2.29169 -0.391682 2.51687
2208 1 -0.220372 -0.538762 1.80566
2522 1 -0.960917 -0.513837 2.04583
2287 1 -6.64167 -7.51479 3.22786
1821 1 -7.36204 -6.98806 3.68345
3111 2 -5.77143 -6.72919 3.753
1347 1 -3.94007 -7.28014 2.65221
1046 1 -4.45841 -6.98053 3.07634
1981 1 -3.59067 -6.70611 3.20995
2651 1 -2.99801 -7.27951 3.02154
3358 2 -2.15875 -7.09269 2.73595
1373 1 -0.899191 -7.46906 2.90145
2309 1 -0.313102 -6.79671 3.04497
975 1 -6.68535 -6.26631 3.39153
1437 1 -7.40739 -5.69722 3.27321
2126 1 -6.54608 -5.07285 3.56873
568 1 -5.70296 -5.94042 2.78355
2801 2 -5.26116 -5.23659 3.56355
3063 2 -4.70569 -5.94548 3.30201
544 1 -3.78629 -5.19176 3.59322
2030 1 -2.95866 -5.99281 3.56075
870 1 -3.67696 -5.87924 3.05038
1627 1 -2.08254 -5.59942 2.98892
1370 1 -1.50806 -6.25003 2.97437
3487 2 -0.653894 -5.463 3.11968
617 1 -6.8173 -3.99267 3.68347
284 1 -7.1035 -4.63836 3.01439
2297 1 -5.96901 -4.25887 3.67059
445 1 -5.76449 -4.43879 2.79128
56 1 -4.83258 -3.90042 3.34542
1980 1 -4.04541 -4.56957 2.86691
282 1 -4.20695 -4.50147 3.76089
3518 2 -2.95944 -4.93631 3.10108
1352 1 -3.21755 -3.84797 3.60717
2445 1 -1.37029 -4.47223 2.53369
1115 1 -1.73795 -4.80927 3.36609
2664 1 -2.2417 -4.11534 2.69016
1301 1 -0.524196 -4.3368 3.2104
3537 2 -7.03728 -3.31503 2.57637
1491 1 -5.22472 -2.57384 2.71477
2152 1 -5.47039 -3.36999 3.39722
3286 2 -6.29294 -3.39074 2.73989
1111 1 -3.78732 -3.44614 3.2537
1919 1 -2.95125 -3.48117 2.78976
1141 1 -3.03451 -2.78565 3.69869
3189 2 -1.61738 -2.59066 2.78705
2854 2 -1.64101 -3.35154 3.56947
3038 2 -0.0600626 -3.10526 3.0957
2976 2 -0.972124 -2.97554 3.7592
3475 2 -1.03506 -3.51153 2.97186
937 1 -6.31594 -2.13367 3.1341
1467 1 -7.18659 -2.29619 3.27981
3480 2 -5.28477 -1.99818 3.7008
2557 1 -5.59758 -1.82648 2.79114
38 1 -4.4866 -1.48118 3.09068
876 1 -4.3048 -2.50928 2.60042
1217 1 -3.5067 -2.15284 3.49543
2909 2 -2.59207 -2.29089 2.6637
1239 1 -2.40503 -1.57468 3.20089
165 1 -1.28091 -1.80676 3.46782
1528 1 -0.6297 -2.13628 2.52286
2274 1 -0.465312 -1.93122 3.70456
2959 2 -7.02943 -1.01338 3.4634
1674 1 -6.00926 -0.216631 2.83685
2289 1 -5.0598 -0.856938 2.84429
232 1 -6.09693 -0.921041 3.10819
435 1 -4.48307 -0.32756 2.55515
2045 1 -3.79007 -0.663031 3.1565
1670 1 -2.81323 -1.0132 2.73415
2336 1 -1.33974 -0.109113 2.58052
3125 2 -2.30234 -0.566759 3.73531
2066 1 -1.7958 -0.957629 2.86396
1663 1 -0.174627 -1.01538 3.31958
2894 2 -0.667557 -0.0315323 3.46253
1895 1 -6.7841 -6.94204 4.4685
352 1 -6.0445 -7.47212 4.52244
1494 1 -6.03168 -6.49251 4.68698
488 1 -4.36688 -6.53691 4.0058
119 1 -4.96184 -7.08752 4.57139
1378 1 -4.9269 -7.5424 3.93775
1224 1 -3.01978 -7.27586 3.88942
52 1 -2.68696 -7.13566 4.68255
2428 1 -3.38542 -6.45087 4.19696
891 1 -2.01972 -7.53175 4.59299
1751 1 -2.02894 -6.60573 3.8882
304 1 -1.46083 -6.64903 4.53558
2312 1 -1.59674 -7.29437 3.93043
2104 1 -0.348346 -6.34607 4.51983
657 1 -0.74461 -7.42227 4.486
1179 1 -0.781288 -6.82077 3.88483
1088 1 -7.26031 -6.20645 4.0932
1525 1 -6.68827 -5.82158 4.58908
3024 2 -5.85838 -5.84076 3.90715
339 1 -4.80981 -6.07738 4.77365
715 1 -4.02558 -5.49927 4.32754
3212 2 -2.91507 -5.84136 4.9638
142 1 -1.56626 -5.81949 4.2673
774 1 -2.3665 -5.49659 4.17698
3404 2 -2.21172 -6.21162 4.92985
3440 2 -0.308179 -5.21555 3.85383
2697 1 -6.9539 -4.25415 4.74992
1683 1 -7.17137 -4.65841 3.99201
1105 1 -5.62274 -4.59468 4.73276
2034 1 -5.07174 -4.19241 3.94604
1209 1 -4.4082 -4.25592 4.86486
1045 1 -3.20726 -4.74483 4.21375
2333 1 -2.74961 -4.15174 5.02717
1207 1 -1.51833 -4.92535 4.21627
1314 1 -2.15499 -4.37083 3.96453
2408 1 -0.793697 -4.06583 4.20723
1349 1 -7.30892 -2.78645 4.0919
245 1 -6.63341 -2.99334 3.99585
229 1 -6.54442 -2.54222 5.00524
685 1 -7.52073 -3.56991 4.82418
442 1 -5.72638 -2.85186 3.85616
248 1 -5.51922 -3.20821 4.51186
1625 1 -4.4887 -2.7062 5.02143
3370 2 -3.91563 -3.45812 4.50963
3249 2 -4.39393 -3.17676 3.98723
584 1 -2.56675 -3.46994 4.12911
596 1 -1.80405 -2.64653 4.54097
838 1 -1.32955 -3.37117 4.91385
1591 1 -6.53978 -1.98287 4.27046
3329 2 -7.5401 -1.28465 4.23503
2935 2 -5.57213 -1.75588 4.33214
2735 2 -4.60811 -2.47442 3.78509
909 1 -4.22709 -1.41856 4.16185
1530 1 -4.19436 -1.8704 4.89761
203 1 -3.74404 -2.23646 4.41079
642 1 -2.42427 -2.12549 4.65891
1075 1 -2.12665 -1.74569 3.82777
1872 1 -0.660405 -1.80161 4.77027
399 1 -7.39256 -0.369683 4.9873
299 1 -6.71196 -0.445415 4.50957
2490 1 -6.59285 -1.1116 4.81133
675 1 -7.52497 -0.0834077 4.17755
1053 1 -6.09187 -0.759383 4.17368
2667 1 -4.31352 -0.342927 3.91355
947 1 -4.94591 -0.923842 3.81752
182 1 -4.39512 -0.731878 4.84923
3319 2 -3.57075 -0.150126 4.99953
3506 2 -2.99281 -1.16504 4.21615
514 1 -1.28895 -0.0779685 4.81364
9 1 -1.56611 -1.21478 4.72065
2939 2 -1.2566 -0.672841 3.9085
1999 1 -0.641053 -0.717708 4.87175
1823 1 -0.217026 -1.13022 4.29691
3318 2 -7.46544 -7.3466 5.86385
3217 2 -6.31448 -7.1141 5.87167
3170 2 -6.54244 -6.36686 5.64962
2868 2 -7.26561 -6.71284 5.1302
2510 1 -5.34961 -6.91137 5.23659
1603 1 -5.10098 -6.67536 5.90448
2821 2 -3.89362 -6.83077 5.26337
1308 1 -3.71186 -6.6787 6.22538
913 1 -2.84331 -6.69462 5.62271
2964 2 -1.24261 -6.80983 5.48469
1079 1 -0.714777 -7.38948 6.21278
1361 1 -6.51649 -5.38361 6.07536
3353 2 -7.54346 -6.06461 5.49939
716 1 -5.96527 -5.27614 5.07198
2137 1 -5.56946 -5.83175 5.28799
3011 2 -4.73191 -5.4025 5.73126
3224 2 -3.8008 -5.42379 5.34123
8 1 -2.9577 -6.01238 6.28304
288 1 -1.57272 -5.69351 5.64576
1657 1 -2.34192 -5.31101 6.04413
1559 1 -0.841281 -5.92328 5.07473
1040 1 -1.2531 -5.15196 6.15352
268 1 -0.209512 -6.26751 5.71281
1279 1 -0.17776 -5.19588 5.51126
2841 2 -6.41555 -4.11105 5.72753
161 1 -6.68324 -5.03661 5.36047
1812 1 -5.02016 -4.25601 5.90429
1560 1 -4.32174 -4.54992 6.15994
2383 1 -3.7244 -4.45261 5.47694
425 1 -3.4078 -3.9064 5.87416
3109 2 -1.95301 -4.98001 5.10475
350 1 -2.03711 -3.7815 5.28881
1781 1 -1.50034 -3.87809 6.06269
3107 2 -1.11566 -4.60678 5.23783
2977 2 -0.563904 -4.39964 6.19028
3569 2 -6.38048 -3.58434 5.19474
3053 2 -7.13115 -3.2043 5.78731
1249 1 -5.7337 -2.79357 5.17748
1668 1 -5.68653 -3.25197 5.93741
840 1 -5.18937 -3.69244 5.16754
839 1 -4.91129 -2.92992 5.82539
1523 1 -4.26525 -3.49996 6.05112
2740 2 -3.23067 -2.89549 5.3549
611 1 -0.357734 -3.56921 5.04848
1078 1 -0.878303 -3.16643 6.02659
1002 1 -0.560089 -2.80052 5.30558
307 1 -6.38837 -1.71607 5.49205
3034 2 -7.3705 -1.57334 6.28731
3364 2 -7.54708 -1.63316 5.15285
534 1 -6.52924 -2.35547 5.92173
2101 1 -5.18981 -2.0975 5.13566
2851 2 -5.58263 -1.80364 6.01061
2281 1 -4.95827 -1.26402 5.21439
781 1 -4.52201 -1.75022 5.5373
331 1 -3.94542 -2.44261 6.11723
811 1 -3.44358 -1.6881 5.08018
2016 1 -2.94095 -1.72468 6.2379
3289 2 -1.98923 -2.26885 5.63485
3387 2 -2.05327 -1.49618 5.85669
2820 2 -1.16607 -1.40381 5.72647
1029 1 -0.348025 -1.73439 5.60202
1550 1 -6.75963 -0.527811 5.78656
1465 1 -7.45788 -0.115698 5.69692
3136 2 -5.79141 -0.820017 5.57368
3162 2 -5.78382 -0.0702995 5.46275
1386 1 -4.53344 -0.961524 6.05026
2106 1 -4.58491 -0.00618154 5.21513
1471 1 -3.44409 -1.07055 5.86933
958 1 -2.56658 -1.06175 5.22582
841 1 -2.16344 -0.351972 5.62236
2789 2 -1.4318 -0.810627 6.23462
559 1 -0.133006 -0.365054 5.57303
1416 1 -6.62651 -7.41007 6.86942
1655 1 -7.19976 -6.45631 6.72304
2339 1 -6.50075 -6.66214 7.37334
1362 1 -5.74641 -6.51896 7.20728
47 1 -5.7841 -7.36065 6.91964
1542 1 -5.13956 -7.01139 6.71318
1689 1 -3.92816 -7.25685 7.00401
1205 1 -4.40782 -7.19959 6.35487
2065 1 -2.90246 -7.29592 6.75531
2100 1 -1.62811 -7.0992 7.30118
3507 2 -1.72471 -6.39041 6.37768
672 1 -1.73641 -7.53315 6.3747
2233 1 -0.744953 -6.81816 6.74247
32 1 -0.43473 -7.23911 7.41249
734 1 -7.12057 -5.10973 6.57428
1786 1 -6.66136 -5.68474 6.91277
3043 2 -5.23437 -5.74672 7.49757
3263 2 -5.72127 -5.09731 7.44131
2362 1 -6.18354 -6.15 6.5208
3363 2 -5.4192 -5.56492 6.37485
934 1 -4.18921 -5.40407 7.08336
1785 1 -4.41658 -6.15291 6.44576
562 1 -3.58666 -6.12791 7.12721
1171 1 -3.63119 -5.42849 6.54002
3459 2 -2.20829 -6.27375 6.96286
768 1 -1.47661 -5.67554 7.45946
2370 1 -2.34797 -5.36111 7.16617
2760 2 -0.498981 -6.06208 7.32129
1026 1 -0.0921702 -5.56282 6.46961
2505 1 -0.889012 -5.37868 6.84203
2960 2 -7.00271 -3.92854 6.30499
21 1 -6.52087 -4.81246 7.02392
2484 1 -5.77027 -4.12879 6.53074
113 1 -5.99316 -4.79108 6.42006
806 1 -5.4152 -3.84119 7.55413
1511 1 -4.72395 -4.14261 7.31475
2154 1 -5.0071 -3.78244 6.68374
3105 2 -3.92374 -4.02836 7.05057
1317 1 -4.80896 -4.79126 6.92993
3375 2 -3.37 -4.45469 7.02367
1756 1 -2.39135 -4.32052 6.42324
1734 1 -1.53168 -4.5496 6.78279
2000 1 -0.655854 -4.95236 7.53875
2191 1 -6.30867 -3.08714 6.57845
2122 1 -7.2916 -2.55896 6.77836
679 1 -7.39909 -3.38264 7.12831
2965 2 -5.52298 -2.82907 7.23444
2036 1 -6.06656 -3.57331 7.05096
558 1 -4.33913 -2.98877 7.15417
1414 1 -2.52447 -2.64385 6.82227
319 1 -2.92061 -2.78145 7.46148
2497 1 -2.81127 -3.51348 6.42508
533 1 -3.50835 -3.05706 7.14287
1450 1 -1.87535 -3.70413 7.12411
358 1 -0.202324 -2.55864 6.36441
3202 2 -0.649827 -3.6347 7.10883
2049 1 -6.97142 -1.86762 7.54477
1232 1 -6.55509 -2.30607 6.69663
1726 1 -6.33316 -1.5793 6.61769
1119 1 -5.53702 -1.40672 7.14672
3474 2 -5.40697 -2.26409 6.47225
3388 2 -5.89923 -2.34944 7.52696