ITEM: TIMESTEP
0
ITEM: NUMBER OF ATOMS
3594
ITEM: BOX BOUNDS pp pp pp
-7.3491786444722598e+00 7.3491786444722598e+00
-7.3491786444722598e+00 7.3491786444722598e+00
-7.3491786444722598e+00 7.3491786444722598e+00
ITEM: ATOMS id type x y z
663 1 -6.22863 -6.59275 -6.11398
3511 2 -6.75455 -5.96785 -6.97935
410 1 -7.28806 -6.69995 -6.97706
2060 1 -6.58582 -7.30402 -6.26157
2644 1 -4.83023 -6.61269 -7.11777
587 1 -5.32207 -7.06298 -6.15865
546 1 -5.51028 -5.89936 -7.13302
3302 2 -5.41617 -6.17711 -6.28587
2529 1 -3.71991 -5.93727 -6.09761
437 1 -3.95048 -6.93902 -6.94469
2729 1 -4.36001 -7.10666 -6.08333
2118 1 -4.30987 -6.10877 -6.83791
2443 1 -3.59697 -6.82742 -5.91641
2222 1 -3.25091 -6.92961 -7.31314
2297 1 -3.16511 -6.3112 -6.61635
3525 2 -1.94083 -6.39654 -7.19818
2794 2 -2.25083 -6.78847 -6.78214
2622 1 -2.70205 -6.26 -5.9225
455 1 -0.456604 -6.40505 -6.49249
1900 1 -1.15186 -7.02323 -6.68385
1324 1 -1.27409 -6.34393 -6.01298
2427 1 -6.55583 -4.46725 -5.91319
272 1 -7.29383 -5.83918 -5.97681
3269 2 -6.74485 -4.9216 -7.10797
2544 1 -5.92034 -5.1558 -5.80191
1775 1 -6.60116 -5.72802 -5.87175
2540 1 -7.34634 -4.71786 -5.77411
3159 2 -4.52035 -4.87232 -6.19396
3342 2 -4.81735 -5.72395 -6.04282
392 1 -5.75722 -4.41112 -6.03829
2277 1 -5.7548 -4.90495 -6.81069
2475 1 -4.89396 -5.44616 -7.23811
213 1 -3.89687 -5.33638 -6.87862
163 1 -3.03082 -5.24398 -6.04725
1259 1 -3.04654 -4.85173 -7.13653
3000 2 -2.49676 -5.75578 -7.04232
1684 1 -2.04381 -5.08241 -6.38307
1136 1 -1.83567 -5.70397 -6.02698
38 1 -2.15005 -4.44858 -5.79844
2547 1 -0.0694878 -5.50478 -6.63924
2169 1 -0.77084 -5.50827 -5.80089
2846 2 -1.26592 -5.62525 -6.97937
1435 1 -1.24122 -4.70609 -6.32012
1666 1 -0.0427803 -4.53759 -7.0803
2448 1 -6.90005 -3.83905 -6.4689
121 1 -5.99056 -3.68015 -6.60448
436 1 -6.91963 -3.2639 -7.09401
886 1 -5.16663 -4.13974 -7.22774
2159 1 -4.62138 -3.61601 -6.67254
221 1 -5.26223 -3.52925 -6.13513
905 1 -5.70897 -3.20899 -7.17275
1280 1 -3.7323 -3.78413 -6.56286
2116 1 -4.23232 -3.27993 -5.90435
703 1 -3.80389 -3.21924 -7.13933
618 1 -2.85732 -4.21803 -6.35446
1265 1 -1.86189 -4.24705 -6.77577
2055 1 -1.68504 -3.62401 -5.89427
3313 2 -2.81092 -3.43631 -7.06708
1425 1 -2.61161 -3.36617 -5.81514
2167 1 -0.686691 -3.76578 -6.51942
1927 1 -0.983374 -4.09859 -5.77648
482 1 -0.351851 -4.37316 -6.22565
2902 2 -1.4486 -3.28084 -7.1027
342 1 -0.570093 -3.01843 -5.79164
3147 2 -6.28065 -2.17433 -6.50481
3139 2 -6.51811 -1.48764 -6.70463
195 1 -7.29072 -2.18685 -7.06843
2387 1 -6.92793 -2.61121 -5.98266
2784 2 -5.00771 -1.58455 -6.40702
59 1 -4.69073 -2.55427 -7.13808
3548 2 -5.56881 -1.94339 -6.53277
2812 2 -5.79943 -2.55728 -5.88863
2563 1 -4.27208 -2.37065 -5.86246
1874 1 -3.96569 -2.28578 -6.92272
2762 2 -3.23475 -1.70576 -6.4651
714 1 -3.6076 -2.88614 -6.35402
813 1 -1.7947 -2.01321 -7.05362
876 1 -2.48156 -2.46756 -6.37852
1216 1 -2.72094 -2.37836 -7.33007
1393 1 -1.99244 -1.70886 -5.84036
1250 1 -1.04351 -1.78845 -7.29776
3347 2 -0.98609 -1.81708 -6.00258
1705 1 -0.763702 -2.44113 -6.50338
1428 1 -0.191735 -1.89837 -6.67343
3204 2 -7.03995 -0.944373 -6.782
1475 1 -6.61099 -1.27185 -5.72205
1248 1 -5.88844 -0.148805 -6.49285
1447 1 -5.96981 -0.640125 -7.0146
2698 1 -4.5653 -0.0547723 -6.35352
64 1 -4.83212 -0.52544 -5.72789
393 1 -5.55626 -0.969451 -5.78147
37 1 -5.05914 -0.191776 -7.10627
3124 2 -3.74227 -1.15605 -6.13612
2854 2 -3.70142 -0.116839 -6.88723
2407 1 -3.30905 -1.04062 -7.31409
2932 2 -2.54912 -0.15404 -6.06469
2726 1 -2.42061 -0.149431 -7.25427
1589 1 -1.67115 -0.812785 -7.09358
3023 2 -1.65352 -0.270935 -5.87708
1407 1 -2.65889 -0.734653 -6.67425
2457 1 -2.04924 -1.27335 -6.43327
2604 1 -0.206751 -0.955399 -7.0092
1111 1 -0.932138 -1.13496 -6.55681
2668 1 -0.697111 -0.549101 -6.00443
2607 1 -0.570092 -0.251437 -6.60723
3081 2 -0.303463 -1.44614 -5.829
203 1 -6.44947 -6.96356 -5.37549
2482 1 -6.35426 -6.43198 -4.43211
269 1 -7.1034 -6.49333 -5.48301
1131 1 -7.09993 -6.84363 -4.2041
395 1 -6.7357 -7.34157 -4.6961
660 1 -5.55818 -6.76396 -5.08429
963 1 -5.83842 -5.88463 -5.16387
2962 2 -4.49119 -6.53324 -5.0222
2422 1 -5.74873 -7.08275 -4.31159
210 1 -5.55681 -5.93296 -4.32766
3335 2 -3.61952 -6.6458 -4.73757
988 1 -2.963 -6.96867 -5.45127
706 1 -2.19964 -6.44303 -5.22192
3338 2 -2.90294 -6.76205 -4.09573
2100 1 -1.79419 -6.13831 -4.39961
2850 2 -1.59491 -7.27662 -5.46904
2079 1 -1.32846 -5.9823 -5.08009
1952 1 -0.266949 -7.09949 -4.2143
1498 1 -0.954387 -5.94361 -4.12828
2864 2 -0.795932 -6.77419 -4.98838
3459 2 -0.0823701 -6.17918 -5.39341
3460 2 -7.17995 -5.40255 -4.96676
2066 1 -6.30057 -5.11609 -4.30241
2236 1 -6.64019 -5.79623 -4.12493
518 1 -4.94428 -4.69873 -5.20639
1505 1 -5.13666 -5.45281 -5.25826
598 1 -4.59709 -5.3332 -4.61702
2669 1 -5.84446 -4.98715 -4.87908
2250 1 -3.75818 -5.53644 -4.13482
3518 2 -3.85239 -4.57002 -5.64254
471 1 -4.19062 -5.40727 -5.26142
1241 1 -2.96464 -5.82896 -4.39622
2010 1 -3.35597 -5.55413 -5.3082
1186 1 -3.22228 -4.96896 -4.5187
863 1 -2.66195 -4.49696 -4.94491
2542 1 -2.26708 -5.02956 -4.18864
2627 1 -1.59975 -5.17739 -5.54432
211 1 -2.2881 -5.58413 -5.04229
3027 2 -1.26248 -4.53569 -4.88623
1539 1 -0.742214 -5.38044 -4.8109
1165 1 -6.31527 -4.24622 -5.00206
2686 1 -7.34604 -3.95792 -4.72862
1013 1 -6.81644 -3.56808 -5.60628
1503 1 -6.79772 -3.06831 -4.89473
686 1 -4.89103 -3.86716 -5.44209
3191 2 -5.80217 -3.31204 -4.5844
3058 2 -5.87276 -3.12873 -5.34416
1149 1 -4.90899 -3.60152 -4.17131
1629 1 -4.03182 -4.30876 -4.65227
494 1 -4.30912 -3.43249 -4.99824
827 1 -3.03002 -4.00367 -4.45441
245 1 -3.62517 -3.43642 -4.28182
2260 1 -3.3822 -3.48712 -5.5102
3066 2 -1.93255 -3.73955 -4.86198
75 1 -2.74073 -3.02362 -4.51565
759 1 -0.402423 -4.07665 -5.13898
2623 1 -0.266345 -4.09734 -4.45871
3297 2 -1.46568 -3.19168 -4.48788
1238 1 -0.0773093 -3.32266 -5.14932
822 1 -6.82763 -2.12624 -5.21442
1140 1 -7.27245 -2.63183 -4.31512
90 1 -6.33215 -2.42802 -4.30756
2575 1 -6.16106 -1.85095 -5.2279
1240 1 -4.49747 -2.01478 -4.64285
459 1 -5.35712 -1.87006 -5.03501
981 1 -4.75837 -2.89677 -4.57873
2717 1 -5.40992 -2.38047 -4.32105
3398 2 -3.13228 -2.07725 -5.55233
3128 2 -3.37851 -2.62454 -4.97613
412 1 -3.66508 -2.10771 -4.09348
1827 1 -1.93584 -2.19923 -4.63305
1177 1 -1.48633 -2.66112 -5.56726
525 1 -2.36598 -2.70128 -5.31694
1067 1 -2.82555 -2.02253 -4.11292
1838 1 -1.14719 -1.49166 -4.28452
2754 2 -0.591966 -2.5544 -4.6119
3438 2 -0.773318 -2.05368 -5.19301
3212 2 -6.48173 -1.38598 -4.18431
3360 2 -7.03685 -0.728643 -4.78781
756 1 -6.61058 -0.583663 -5.59875
1274 1 -5.86094 -0.788887 -4.86335
1208 1 -4.77713 -0.854117 -4.98947
548 1 -4.34654 -1.21198 -4.23724
1368 1 -3.67606 -0.367029 -5.5101
1068 1 -4.26345 -1.28983 -5.24886
1525 1 -4.04914 -0.143351 -4.31775
2013 1 -3.31756 -0.0656993 -4.73081
664 1 -3.16847 -1.28363 -4.73467
791 1 -1.63983 -1.18457 -5.13262
1857 1 -1.57033 -0.174786 -4.11266
2234 1 -2.33467 -1.27278 -5.11824
1363 1 -2.79398 -0.671938 -5.40236
1896 1 -2.14031 -0.174365 -4.71574
920 1 -1.02819 -0.204354 -4.95896
1801 1 -0.553392 -1.16045 -4.86053
1346 1 -0.130401 -1.10403 -4.2709
1302 1 -0.0150145 -0.219422 -4.90098
2802 2 -6.42027 -6.53237 -3.11814
2594 1 -7.25984 -6.29393 -2.62379
3439 2 -6.01042 -6.03856 -3.36699
352 1 -7.26395 -6.28621 -3.53449
1997 1 -4.96477 -6.59436 -3.84676
731 1 -5.25608 -6.93337 -3.05477
2879 2 -3.97272 -6.8379 -3.8085
2533 1 -4.33061 -6.3013 -2.82566
2871 2 -4.2344 -7.31225 -3.02243
2713 1 -2.9819 -6.64767 -2.48461
1796 1 -3.39499 -6.2464 -3.34862
2133 1 -3.06594 -7.03793 -3.09618
2599 1 -2.35033 -5.96243 -3.69609
3384 2 -2.15406 -7.13101 -3.84026
43 1 -1.7245 -6.60571 -2.85976
961 1 -2.48184 -6.17372 -2.95929
2692 1 -1.28823 -7.18103 -3.18324
3013 2 -0.50743 -6.4639 -2.50313
1552 1 -1.28537 -6.39677 -3.4417
17 1 -0.679693 -7.2686 -3.61882
3144 2 -0.014146 -6.95495 -2.82009
2552 1 -7.0526 -4.85539 -3.67169
344 1 -6.18552 -5.01426 -3.51374
2295 1 -5.92662 -4.7824 -2.59309
777 1 -7.17895 -5.46536 -3.30217
2088 1 -6.79159 -4.62356 -2.97158
47 1 -4.53824 -5.83972 -3.6887
2751 2 -5.12373 -4.72265 -3.72238
3364 2 -5.38434 -5.70912 -3.08125
1839 1 -4.53135 -5.04541 -2.56792
1041 1 -3.98492 -5.6203 -2.60538
3078 2 -4.33349 -4.73291 -3.60487
155 1 -3.22203 -5.57686 -2.82943
3399 2 -3.40724 -4.6307 -3.39141
2173 1 -3.54067 -4.98337 -2.46809
1893 1 -2.99209 -5.52298 -3.58158
1486 1 -1.51603 -5.28573 -4.07289
2839 2 -2.51516 -4.66569 -3.30634
2973 2 -1.56859 -5.30994 -2.9952
2007 1 -0.642984 -5.09718 -3.76683
1976 1 -0.277107 -5.06594 -2.72085
2400 1 -0.202683 -5.79115 -3.59044
3432 2 -1.03444 -5.56322 -2.48751
2099 1 -7.18913 -3.93223 -4.03382
3043 2 -6.10803 -3.59062 -3.79833
2734 2 -6.35126 -3.20884 -3.25198
3050 2 -5.70004 -4.25982 -4.02031
1778 1 -4.88505 -4.38356 -2.55089
816 1 -5.47796 -3.93475 -2.91156
837 1 -4.64248 -3.00445 -2.72518
48 1 -5.23617 -3.14361 -3.38584
381 1 -4.10184 -4.10939 -2.62183
1414 1 -4.17594 -3.11184 -3.85812
2495 1 -4.06699 -3.57921 -3.33145
67 1 -3.27101 -3.34646 -3.54414
1300 1 -3.27993 -3.63468 -2.45717
25 1 -2.44827 -3.7024 -3.97124
1187 1 -1.49324 -4.11696 -2.82272
1251 1 -1.62909 -3.27554 -3.52451
737 1 -2.27758 -3.4768 -2.87748
2474 1 -0.850208 -3.76357 -4.0055
921 1 -0.451489 -4.29417 -3.0972
2042 1 -1.46715 -4.39013 -3.5892
1809 1 -0.973723 -3.23593 -2.63466
477 1 -0.751896 -3.0286 -3.26895
551 1 -7.17641 -2.39741 -3.59114
2030 1 -7.29006 -2.55227 -2.59225
418 1 -6.19663 -2.25675 -3.56591
757 1 -7.10756 -1.52055 -2.59484
2374 1 -6.48009 -2.57142 -2.58741
2124 1 -5.52348 -2.50642 -2.57921
1991 1 -4.53574 -2.18626 -3.57068
1982 1 -5.29525 -2.37292 -3.39116
2941 2 -3.99543 -2.36946 -2.80144
3584 2 -3.3791 -2.52696 -2.82369
1445 1 -2.04782 -2.45104 -3.80458
634 1 -2.68724 -2.8166 -3.56421
2209 1 -2.2888 -1.87584 -3.18181
1734 1 -1.91965 -2.39537 -2.8733
2654 1 -2.86186 -1.54888 -2.78805
1410 1 -1.26443 -2.03898 -3.41558
2165 1 -0.427079 -2.45514 -2.74384
755 1 -0.633725 -1.67912 -3.55943
579 1 -6.19797 -0.00440814 -4.05911
1588 1 -6.63298 -0.629603 -2.79475
1623 1 -6.9422 -0.866434 -3.65115
3564 2 -5.97635 -1.39146 -3.08414
1199 1 -6.44123 -0.0319424 -3.26245
2530 1 -7.23927 -0.172127 -3.58741
3256 2 -5.52259 -1.1419 -3.95528
417 1 -5.04826 -0.382159 -4.07776
60 1 -5.76871 -0.179812 -3.16724
3110 2 -5.30773 -1.16995 -2.69141
1025 1 -4.45037 -0.190154 -2.67646
2017 1 -4.35479 -0.431538 -3.43762
2711 1 -4.34509 -1.31457 -3.24318
2486 1 -3.72233 -1.2447 -2.54595
91 1 -3.41328 -1.46853 -3.5027
1322 1 -3.25222 -0.558706 -2.99322
3454 2 -2.16249 -1.2141 -3.9672
3379 2 -2.80134 -0.474192 -3.93326
3178 2 -2.23975 -0.777832 -3.25834
641 1 -1.68348 -0.0324766 -3.1049
1648 1 -0.747187 -0.431591 -4.0768
1875 1 -0.0913495 -1.16715 -3.33129
2464 1 -0.880571 -0.413072 -2.83212
539 1 -1.05672 -1.03041 -3.31021
2195 1 -0.0427902 -0.207285 -3.00064
2833 2 -6.12822 -7.07868 -1.61586
505 1 -6.32045 -6.06892 -2.20271
2805 2 -5.90485 -6.56535 -1.05881
1984 1 -7.28317 -6.09075 -1.60318
613 1 -7.2443 -6.69659 -0.85368
2386 1 -7.33623 -6.98186 -1.87519
385 1 -4.65395 -6.52621 -1.81739
878 1 -5.46355 -6.4896 -2.44845
1162 1 -4.14388 -7.15076 -1.50485
2409 1 -3.74729 -6.5855 -2.33428
3490 2 -3.27765 -5.89505 -1.71851
2787 2 -3.57529 -6.38472 -1.21095
770 1 -1.60102 -6.63516 -1.83074
1987 1 -2.48518 -7.052 -0.941333
1746 1 -2.47614 -6.84017 -1.84577
2471 1 -2.16544 -6.28514 -1.11291
82 1 -0.353255 -6.00181 -1.6438
2979 2 -0.394161 -7.07281 -2.16268
1232 1 -1.10127 -6.94343 -1.00612
1886 1 -6.40868 -5.27525 -2.44258
1174 1 -6.47094 -5.71059 -1.30676
3074 2 -6.97214 -4.79617 -1.64623
1227 1 -5.62763 -5.65455 -1.91298
1277 1 -5.07556 -5.74802 -1.25246
1836 1 -4.7069 -5.77728 -2.01108
3151 2 -5.67069 -4.41297 -1.55025
3226 2 -4.97195 -4.6662 -1.16776
3129 2 -3.98064 -4.72587 -1.53749
567 1 -3.17927 -5.18875 -0.942947
2054 1 -3.02281 -4.62008 -2.08497
2724 1 -2.42024 -5.44413 -2.27677
1215 1 -1.98195 -4.56116 -2.10416
2135 1 -2.25462 -5.34473 -1.22582
138 1 -1.62052 -5.87385 -1.69189
2581 1 -1.33545 -4.59157 -1.00214
1700 1 -0.430703 -5.21088 -1.84445
2434 1 -1.32125 -4.73884 -1.7214
1603 1 -6.63954 -4.11927 -2.38709
2703 1 -6.39266 -3.91048 -1.20198
1015 1 -4.95716 -3.70712 -1.69418
1741 1 -4.74514 -3.50054 -0.876171
2625 1 -5.74293 -3.20681 -1.67042
102 1 -5.53468 -3.62917 -0.895348
2531 1 -5.16389 -3.18357 -2.35903
588 1 -4.12442 -3.71668 -1.69383
3407 2 -3.35306 -3.91527 -1.17279
919 1 -3.04915 -2.95659 -1.76871
1431 1 -2.61871 -4.12625 -2.41319
3485 2 -2.67372 -3.93379 -1.26288
3576 2 -1.81818 -3.85395 -1.50419
2727 1 -1.91397 -2.99286 -1.74925
2788 2 -0.562915 -3.91674 -1.05757
445 1 -0.968379 -4.00173 -2.05224
2359 1 -0.40876 -4.37756 -2.05655
2874 2 -0.0109977 -4.39834 -1.05058
2102 1 -1.0109 -3.02205 -1.9254
2735 2 -0.0210233 -3.39349 -2.2306
3045 2 -0.000927303 -3.07179 -1.14162
2368 1 -6.96192 -1.8834 -1.11582
110 1 -6.25143 -2.21196 -2.0057
3339 2 -6.87899 -2.89318 -1.38343
2233 1 -4.61223 -2.14512 -2.24175
1169 1 -5.44763 -2.01551 -1.4347
2237 1 -4.84232 -2.61643 -1.77201
517 1 -3.94859 -2.86532 -1.75493
2 1 -4.22995 -1.87567 -1.45489
1931 1 -3.3324 -2.0564 -0.892417
1284 1 -3.50995 -1.95085 -1.65824
1594 1 -1.67957 -2.21213 -0.998186
2389 1 -2.7448 -1.95245 -2.07002
1483 1 -2.48329 -2.68645 -2.44744
1055 1 -2.49182 -2.39769 -1.39376
2126 1 -2.03884 -1.50706 -1.17301
3578 2 -1.22408 -1.9986 -2.28539
2476 1 -1.00805 -2.37754 -1.11676
1688 1 -0.445741 -2.4105 -1.60851
1235 1 -6.91226 -0.812306 -1.58877
1107 1 -6.28846 -1.25439 -1.85861
1576 1 -6.21289 -0.220642 -1.99238
349 1 -5.5623 -0.130461 -2.38361
469 1 -4.66653 -1.34206 -1.9296
3530 2 -5.25694 -0.432275 -1.17157
3444 2 -4.94468 -1.21562 -0.93438
2473 1 -5.57292 -1.39976 -1.74468
1279 1 -3.99797 -0.914416 -1.18583
946 1 -4.33955 -0.443599 -1.94219
3258 2 -3.04526 -0.899907 -0.880467
710 1 -3.4354 -1.1713 -1.85513
1272 1 -1.5739 -0.51505 -1.51974
591 1 -2.59125 -0.686949 -2.25259
3539 2 -1.76348 -1.43961 -2.26578
8 1 -2.24011 -0.0169432 -1.27441
2764 2 -0.169624 -0.871139 -1.86968
3495 2 -0.881655 -1.26063 -2.1031
2845 2 -0.257755 -0.255642 -1.38016
1467 1 -0.823571 -1.29352 -1.00716
2144 1 -6.94328 -7.2212 -0.268588
2423 1 -6.79094 -6.36856 -0.124691
297 1 -6.45961 -6.63452 0.764604
3368 2 -5.80516 -7.14741 -0.38411
2097 1 -4.98771 -6.2329 -0.456187
902 1 -4.77662 -7.28827 -0.813342
1327 1 -5.68762 -6.00994 -0.000975834
1485 1 -4.92424 -7.34382 0.813444
224 1 -4.80142 -6.42376 0.322133
2852 2 -3.85664 -6.45357 -0.434838
3405 2 -3.93554 -7.25807 -0.406038
2053 1 -3.30399 -7.17532 0.510308
1422 1 -3.64347 -6.02314 0.535957
2583 1 -1.72109 -6.63945 -0.386314
178 1 -2.76854 -6.61236 -0.167506
2375 1 -2.75188 -6.76552 0.602083
795 1 -1.89285 -6.64391 0.452698
2577 1 -0.488665 -6.60509 -0.524585
1159 1 -0.924784 -6.76994 0.261029
1696 1 -0.68602 -6.0093 0.610772
1000 1 -7.24061 -5.57495 -0.589465
2720 1 -7.28122 -4.63692 -0.205079
3346 2 -7.09119 -5.70845 0.609669
1455 1 -6.20363 -4.56508 0.59907
749 1 -6.3314 -5.10928 0.0115598
3574 2 -4.8603 -4.84589 -0.207569
3499 2 -5.81204 -4.77176 -0.673214
968 1 -5.83889 -5.66644 -0.747623
2970 2 -5.28088 -5.13579 0.548158
1001 1 -4.0618 -5.28934 -0.65752
644 1 -3.71477 -4.9682 0.501887
304 1 -4.19083 -5.63128 0.188991
2503 1 -3.45739 -5.12425 -0.164443
391 1 -2.7837 -4.57766 -0.330339
1219 1 -2.64859 -5.78445 -0.472198
464 1 -2.10313 -4.67172 -0.789045
115 1 -1.6539 -4.49283 -0.273839
1737 1 -2.3437 -4.63413 0.233037
3113 2 -2.60641 -5.61761 0.34107
2901 2 -1.22508 -5.69549 -0.783595
3234 2 -0.389506 -4.99948 -0.690573
2888 2 -1.37845 -5.5605 -0.0576417
1458 1 -0.514179 -4.67844 0.342269
375 1 -1.43303 -4.74794 0.779462
1188 1 -6.7888 -4.03287 -0.425499
1841 1 -7.03978 -4.16713 0.473338
3104 2 -6.2412 -3.41253 0.650297
238 1 -4.4356 -3.88126 -0.284207
582 1 -5.58492 -4.02158 -0.036657
2598 1 -5.29768 -2.98777 -0.312032
1432 1 -4.57396 -3.51304 0.47094
149 1 -3.76563 -4.23514 -0.160823
3587 2 -3.69692 -3.15164 -0.703709
1766 1 -3.19135 -4.28841 0.598699
3427 2 -3.61337 -3.11012 0.272169
789 1 -2.55238 -3.79004 0.363845
1753 1 -2.32353 -3.49713 -0.395432
2951 2 -1.47093 -3.11783 0.177478
2163 1 -0.96981 -4.29016 -0.0420645
3570 2 -1.27083 -3.44216 -0.724166
2224 1 -0.361646 -3.35128 0.198262
1731 1 -6.63547 -2.87216 -0.52705
1601 1 -5.89319 -2.42306 -0.157097
2466 1 -6.21689 -1.74506 -0.793749
725 1 -6.63311 -1.88121 -0.0146962
478 1 -7.28969 -2.9012 0.407852
2086 1 -6.75843 -2.19034 0.685738
558 1 -4.71868 -2.43481 -0.620633
3348 2 -5.17189 -1.62943 -0.353851
1030 1 -4.46456 -1.70121 0.815158
3519 2 -5.46411 -1.5614 0.477402
803 1 -4.45115 -2.60428 0.147855
1017 1 -5.41425 -2.89779 0.760643
1375 1 -3.55133 -1.91618 -0.0530256
1209 1 -2.6694 -1.96615 -0.42566
1969 1 -2.54871 -2.83365 -0.722311
727 1 -1.59383 -2.1229 -0.152448
2432 1 -2.39146 -2.41201 0.101184
153 1 -0.289046 -1.89346 -0.797922
2496 1 -0.393102 -2.61946 -0.343814
829 1 -0.482229 -1.87538 -0.182471
1651 1 -0.407421 -1.50084 0.558116
2579 1 -0.805772 -2.4578 0.785021
1780 1 -6.74768 -0.92925 -0.692248
1930 1 -6.73305 -0.00207364 -0.261332
416 1 -7.02777 -1.24367 0.594151
307 1 -6.00123 -0.615097 0.538299
2779 2 -5.61226 -0.875257 -0.530872
1125 1 -4.80161 -0.335103 0.0523207
611 1 -4.13968 -1.32204 -0.0959306
2602 1 -4.29052 -0.135945 -0.741165
1350 1 -4.15239 -0.749618 0.525096
3489 2 -3.26955 -0.139457 -0.586216
861 1 -3.18904 -1.19862 0.341806
1180 1 -2.2823 -0.06158 -0.252358
3008 2 -2.11099 -1.16479 -0.255459
433 1 -2.81938 -0.279164 0.644334
1078 1 -1.37393 -0.357164 -0.66973
1815 1 -0.432253 -0.762925 -0.31252
3135 2 -1.27724 -0.906351 0.34167
87 1 -7.05219 -7.12112 1.36972
3329 2 -6.45671 -7.15931 2.41459
2075 1 -6.48036 -5.95735 1.77922
509 1 -4.60498 -5.97549 2.11163
2172 1 -4.98512 -6.70047 1.53948
132 1 -5.81004 -7.28789 0.937521
798 1 -5.47304 -7.24281 2.01526
1870 1 -5.83608 -6.15354 0.879656
1415 1 -5.58896 -6.15194 2.12069
903 1 -3.88307 -6.34868 1.94611
2229 1 -3.96314 -6.38981 1.20121
2220 1 -4.10394 -7.13456 0.967291
1530 1 -3.13411 -6.55824 1.35663
715 1 -3.18014 -5.91535 2.35753
229 1 -2.79603 -6.85892 2.07227
2747 2 -1.7356 -7.34668 1.82401
1249 1 -1.98726 -6.41625 1.06875
1294 1 -2.36678 -5.97916 1.933
1781 1 -0.687539 -6.92118 2.38496
173 1 -1.18328 -6.74415 1.13019
147 1 -1.34112 -6.01996 1.61928
1303 1 -0.578975 -5.94627 1.32026
3593 2 -0.00912358 -6.79869 1.2817
2485 1 -6.9523 -5.09988 1.79436
1489 1 -6.17 -5.24814 2.42067
1627 1 -6.12227 -5.1228 1.22178
3484 2 -4.55604 -5.55892 1.11301
2730 1 -4.53795 -4.61279 1.77328
287 1 -5.24657 -5.19856 1.95339
2351 1 -3.77564 -4.84799 2.37532
2490 1 -3.46019 -4.43175 1.54677
3400 2 -3.54382 -5.45133 1.40062
3222 2 -2.90181 -5.61351 1.15434
1421 1 -1.74826 -5.45212 1.13375
2090 1 -2.50707 -5.01137 2.38412
207 1 -2.64657 -4.42654 1.32664
2731 1 -2.21787 -4.87556 1.54246
2205 1 -0.557635 -5.21775 1.18035
2896 2 -1.28791 -4.61842 1.74386
2906 2 -1.40951 -5.001 2.41558
2350 1 -0.522054 -5.73245 2.35009
2212 1 -0.164598 -4.94438 2.00653
218 1 -6.41923 -3.98186 2.14937
867 1 -6.66959 -4.39033 1.40073
1695 1 -7.22113 -3.54102 1.24084
1888 1 -6.64091 -3.22833 2.284
99 1 -5.96855 -3.33343 1.52997
597 1 -5.58518 -4.33568 1.63752
974 1 -5.19028 -4.06664 0.886679
883 1 -5.10358 -3.51348 1.543
450 1 -4.14942 -4.3721 0.911579
3216 2 -4.05206 -3.41959 1.9183
3469 2 -3.56638 -3.384 1.11843
555 1 -2.59002 -4.07395 2.14146
2927 2 -1.61531 -3.9674 1.62573
1011 1 -2.49558 -3.74935 1.37455
33 1 -2.75767 -3.24592 2.02786
3402 2 -1.58859 -3.52886 0.858689
702 1 -0.399646 -4.3545 0.942343
267 1 -0.131623 -3.94607 1.91332
2182 1 -0.86396 -3.72298 2.27817
2281 1 -0.498901 -3.42754 1.11925
88 1 -0.529622 -2.95752 2.17785
3369 2 -5.89897 -1.96045 1.06249
1551 1 -6.96157 -2.78997 1.64197
1343 1 -6.03084 -2.41774 2.17583
360 1 -6.55116 -1.5161 2.36318
917 1 -5.5828 -1.80905 2.39643
2322 1 -5.15282 -2.6245 2.24623
2130 1 -4.75183 -2.62884 1.31219
1872 1 -4.66559 -1.959 1.68827
1229 1 -3.63266 -2.27814 1.67035
2479 1 -1.69186 -1.67329 2.15079
1953 1 -2.25669 -2.32607 1.75086
659 1 -2.88703 -2.11401 0.969669
1618 1 -2.67366 -2.88518 1.06807
3361 2 -1.55404 -2.93026 1.77611
925 1 -1.53881 -2.12817 0.860812
2253 1 -0.219982 -2.31836 2.31563
208 1 -0.948296 -1.86343 1.5748
2009 1 -0.134339 -2.60654 1.4276
1598 1 -7.04255 -0.887105 1.94681
623 1 -7.18272 -0.0778058 1.64496
1353 1 -6.39379 -0.977503 1.33101
1744 1 -6.76345 -0.215103 0.849304
681 1 -5.33121 -0.545401 0.908241
3366 2 -5.83826 -0.166878 1.9704
804 1 -5.55608 -1.1817 1.59528
1448 1 -4.76792 -1.10764 1.44325
1494 1 -4.73836 -0.0295375 0.911276
562 1 -4.15461 -0.644579 1.39943
3487 2 -3.79894 -0.92716 2.32264
3322 2 -3.08793 -1.27843 1.99941
144 1 -3.3306 -0.578213 1.08837
1574 1 -3.66701 -1.44745 0.97329
636 1 -1.96064 -0.369874 2.21053
666 1 -2.80232 -0.0178417 1.52463
3316 2 -2.09112 -1.26512 0.836892
2775 2 -2.4127 -1.24998 1.62488
363 1 -1.37761 -0.374642 1.62974
223 1 -0.914746 -0.242908 2.26297
2049 1 -1.12532 -1.17521 2.21034
2480 1 -1.15424 -1.03401 1.35959
241 1 -7.11495 -6.25013 3.47213
3330 2 -5.92467 -6.00806 3.28725
3416 2 -6.51898 -7.0917 3.32244
2757 2 -6.42865 -6.40696 2.77501
3185 2 -6.06908 -6.97438 3.9324
936 1 -5.10775 -6.542 2.68123
1237 1 -5.36127 -7.25212 3.21204
2578 1 -5.02071 -6.43499 3.95956
2900 2 -4.08453 -7.31363 2.49556
3425 2 -3.88191 -6.80233 3.21955
2568 1 -4.32186 -5.93983 4.06726
326 1 -2.95843 -7.23427 2.92101
3353 2 -3.40191 -6.42029 3.82241
1103 1 -2.57983 -6.01742 3.0611
3513 2 -1.63642 -6.93509 2.57223
3544 2 -1.54627 -5.92795 2.57959
2244 1 -1.90593 -6.4568 3.8605
1946 1 -2.47132 -7.33971 3.75658
1443 1 -1.1784 -6.74273 3.54736
1100 1 -0.176417 -6.62298 3.45459
2005 1 -6.99364 -5.21711 3.45922
448 1 -6.2114 -4.97763 3.1049
937 1 -7.07667 -5.73691 2.66867
2499 1 -6.31459 -5.54249 3.97874
2786 2 -5.23055 -4.77998 3.54992
1925 1 -4.51381 -5.68455 3.42038
1146 1 -4.47701 -5.25726 2.5578
557 1 -5.29641 -5.44311 2.70547
3010 2 -4.09308 -4.52544 3.61885
1853 1 -3.74034 -5.64434 3.0086
3240 2 -2.97369 -4.60677 3.4464
366 1 -3.41841 -5.31979 3.81089
281 1 -1.91982 -4.78747 3.53086
1550 1 -1.47948 -5.55024 3.57921
2522 1 -2.59645 -5.59837 3.81752
2991 2 -0.584356 -4.65147 3.01061
1043 1 -0.555181 -5.68472 3.27569
1193 1 -1.11719 -4.82216 3.91501
169 1 -6.14067 -3.75002 3.38529
1027 1 -6.73692 -4.12534 2.86594
2309 1 -7.03151 -4.06384 3.8118
3521 2 -7.16229 -3.33985 3.29861
2877 2 -4.78018 -4.36743 3.16725
3431 2 -5.31152 -4.21272 2.48275
3184 2 -4.63838 -3.86639 2.49278
1348 1 -5.74431 -3.39973 2.73648
2171 1 -5.05877 -3.47443 3.46201
2174 1 -5.68322 -3.47108 3.88415
2363 1 -4.60149 -3.52703 4.05085
888 1 -4.09349 -3.33029 3.15554
2231 1 -3.46079 -3.89583 2.51139
2342 1 -3.18718 -3.34247 3.28305
2382 1 -1.97076 -4.06707 2.85949
1487 1 -2.44543 -3.28849 2.88966
2468 1 -1.66411 -3.19414 2.81922
2582 1 -0.971742 -3.83847 3.08497
677 1 -1.33544 -3.75825 3.72878
2671 1 -0.470099 -3.54899 3.79675
3003 2 -6.00673 -2.4431 3.62042
3553 2 -6.76859 -2.59833 3.3149
348 1 -4.5578 -2.75827 2.68016
51 1 -4.84545 -1.51524 2.48165
709 1 -4.57989 -1.69999 3.2011
3422 2 -5.31113 -2.38527 3.46088
2957 2 -4.59395 -2.30986 3.90926
1417 1 -3.86575 -2.08418 2.5907
1926 1 -3.74253 -1.48172 3.20256
3291 2 -3.90283 -2.32065 4.06394
1051 1 -3.35287 -2.65686 2.47326
1081 1 -3.21422 -2.38655 3.1393
1549 1 -1.85773 -1.567 2.85567
2437 1 -2.31747 -2.30732 2.63408
959 1 -2.92874 -1.73262 3.57377
3079 2 -2.15202 -2.79717 3.86744
1814 1 -1.01723 -1.62556 3.28067
3462 2 -1.13883 -2.60527 3.51261
1096 1 -1.20155 -2.2273 2.51255
2433 1 -7.33397 -1.4548 3.37407
2078 1 -6.08763 -1.34509 3.02445
2972 2 -6.34381 -0.3686 2.58713
3547 2 -7.12948 -0.361848 3.04339
2201 1 -6.52855 -0.991797 3.73479
2790 2 -5.40222 -0.345812 2.59974
1790 1 -5.45144 -1.17596 3.62329
3203 2 -4.58429 -0.634909 2.59582
1506 1 -4.63077 -1.18186 3.92739
2562 1 -5.11948 -0.369133 3.69384
24 1 -4.23273 -0.224855 3.4482
63 1 -3.12205 -0.195326 3.49532
1693 1 -3.47785 -0.90644 3.75462
2532 1 -1.96652 -0.863085 3.15428
311 1 -2.7848 -0.637727 2.84525
2026 1 -0.80118 -0.581654 3.05843
2367 1 -0.420161 -1.37043 2.69973
600 1 -0.482419 -1.00207 4.00912
2708 1 -6.07902 -6.1672 4.79392
849 1 -6.65272 -6.0951 5.63156
16 1 -7.01409 -6.12238 4.52671
2319 1 -7.07595 -6.88778 4.84298
1037 1 -4.91267 -6.9064 5.61022
1631 1 -5.20513 -6.5275 4.8073
2326 1 -4.59026 -7.02494 4.26566
2489 1 -3.99191 -6.98219 5.54508
2493 1 -4.02451 -6.09121 5.05227
1244 1 -4.28439 -7.283 4.93478
3213 2 -3.45037 -6.70093 4.57565
456 1 -1.78467 -6.41373 4.73119
3483 2 -2.72089 -6.23752 4.75072
3331 2 -2.91898 -6.88829 5.20239
3381 2 -0.584383 -6.63808 4.3442
2110 1 -1.322 -6.54874 5.3709
2977 2 -0.0708038 -6.31584 5.02573
2513 1 -1.39556 -7.28258 4.83844
2306 1 -6.42331 -5.2587 4.66682
1821 1 -6.30313 -4.58307 4.15461
1711 1 -6.26051 -5.30884 5.4878
3493 2 -4.68021 -4.93732 4.27482
53 1 -5.84237 -4.54898 5.52371
3238 2 -5.49611 -4.56102 4.42431
2430 1 -5.36769 -5.79917 4.09011
2769 2 -5.22748 -5.20905 4.8062
3001 2 -4.80223 -5.63359 5.37823
1802 1 -4.26243 -4.79414 5.10403
1196 1 -3.23607 -5.66933 5.28421
718 1 -3.60466 -5.15961 4.63288
146 1 -2.4687 -4.98934 4.35901
693 1 -2.61401 -4.97943 5.62422
2333 1 -1.92181 -5.45847 5.13055
3300 2 -1.61505 -4.4847 4.96764
1919 1 -1.67215 -5.80615 4.38265
2402 1 -0.48313 -5.27864 5.65131
1192 1 -0.60814 -4.73536 4.88379
2572 1 -0.952997 -5.66519 4.9575
2431 1 -0.679131 -5.3181 4.29917
3317 2 -6.84273 -4.13985 5.15871
3194 2 -6.2916 -3.43064 5.6554
1996 1 -6.53282 -3.40634 4.16654
820 1 -4.87888 -3.97281 4.75705
460 1 -4.88062 -3.58035 5.64157
55 1 -4.61018 -3.22982 4.81167
2742 2 -5.84521 -3.57856 4.95357
916 1 -3.98146 -3.95586 4.99306
1276 1 -3.02784 -4.27368 5.0377
2258 1 -3.61852 -3.54298 4.19285
291 1 -2.40554 -3.79397 4.15771
2535 1 -1.5227 -3.33282 4.63917
1394 1 -2.30988 -3.46427 5.00973
1992 1 -0.786078 -3.90169 4.61158
2849 2 -0.0780665 -3.77843 5.57063
835 1 -1.45426 -2.95977 5.3527
282 1 -0.689523 -3.11351 4.4627
949 1 -6.61412 -2.72829 4.57743
303 1 -6.9234 -2.5819 5.62747
1231 1 -6.14736 -1.61245 4.55248
3408 2 -7.2131 -1.58592 4.84842
2641 1 -4.57864 -2.62181 5.521
1211 1 -5.33902 -2.75104 4.67931
46 1 -5.1516 -1.66573 4.47601
2665 1 -5.57806 -2.80484 5.63294
1883 1 -4.44191 -1.96738 4.95471
3290 2 -3.25001 -2.59935 4.29065
2441 1 -3.06928 -2.311 5.57296
396 1 -3.64817 -2.73412 5.21644
3505 2 -3.5044 -1.72458 4.56539
977 1 -2.235 -1.75675 4.29202
2752 2 -1.73076 -1.91579 5.59029
263 1 -2.53015 -2.67931 5.33451
2249 1 -0.607379 -2.81274 5.24573
3188 2 -1.21888 -2.16262 4.22323
2858 2 -1.17111 -1.90699 5.01393
763 1 -0.0618573 -1.63149 5.38197
708 1 -0.106095 -1.91703 4.3687
621 1 -7.28917 -0.406368 5.08148
492 1 -6.15434 -1.12155 5.17758
2610 1 -6.40092 -0.361836 4.69324
3076 2 -7.29495 -1.24562 5.57529
891 1 -5.30339 -0.759553 4.48522
2290 1 -4.71542 -1.1073 5.36151
2642 1 -5.57665 -0.477805 5.7052
390 1 -4.56219 -0.0701021 5.53072
2843 2 -3.82845 -0.662329 4.83056
3293 2 -3.01962 -0.220944 5.35489
98 1 -2.12793 -1.08346 5.5728
2084 1 -2.61659 -0.121154 4.16177
894 1 -2.03528 -0.809272 4.89421
2087 1 -2.77862 -1.43065 5.28847
2094 1 -2.83512 -0.829853 4.28901
904 1 -1.73006 -0.947471 4.21618
1590 1 -1.74404 -0.080513 5.16391
1423 1 -0.432664 -1.07057 4.71282
1021 1 -1.23872 -0.142036 4.33492
1617 1 -1.11836 -0.800389 5.11321
2312 1 -5.92306 -6.85535 5.73908
2956 2 -6.42774 -6.91326 6.90703
1032 1 -6.67958 -6.08788 6.56762
787 1 -6.73884 -6.94426 5.80517
3127 2 -4.52469 -5.99826 6.11725
824 1 -5.74533 -6.1252 5.8476
1405 1 -5.38965 -7.09808 6.34696
1298 1 -5.57548 -6.89505 7.32995
964 1 -5.28718 -6.17592 6.76221
3434 2 -4.12276 -6.50661 6.57758
1553 1 -3.43264 -6.60959 6.06823
2371 1 -3.52594 -6.14707 7.25676
3437 2 -2.27814 -6.75111 5.74354
309 1 -1.93947 -6.9734 6.73997
1409 1 -1.77911 -6.03886 6.25963
2415 1 -2.93876 -6.28815 6.7215
2449 1 -2.59881 -5.91651 5.98244
2401 1 -2.66851 -7.22723 6.96684
1126 1 -0.846671 -6.07309 6.35926
2015 1 -0.308192 -6.70653 5.99727
2612 1 -0.806378 -6.53672 7.17069
616 1 -1.19726 -6.80639 6.54082
673 1 -0.994721 -7.21902 5.90758
2132 1 -6.04464 -5.61902 6.8717
2139 1 -6.47963 -4.96257 6.22332
2390 1 -7.1767 -5.4433 6.79667
1824 1 -7.06028 -5.28366 5.71679
2223 1 -5.43139 -5.20363 6.4301
324 1 -4.50273 -4.87815 6.50916
1804 1 -5.48916 -4.7028 7.05925
1057 1 -4.73377 -4.4865 5.79853
2127 1 -4.54298 -4.43346 7.09392
1537 1 -4.15871 -5.42604 6.95132
1132 1 -3.70937 -5.04747 5.83456
2705 1 -3.12895 -5.43971 6.41921
3412 2 -1.98278 -5.59693 7.11165
268 1 -1.60352 -5.37179 5.93042
2083 1 -2.65593 -4.67852 6.53676
661 1 -0.232782 -4.63139 6.5372
810 1 -0.575081 -5.47355 6.98721
2215 1 -1.20004 -4.92298 6.51502
819 1 -7.08112 -4.38875 6.24265
3445 2 -6.51034 -4.20275 7.22187
2316 1 -7.23815 -3.08684 6.46855
2744 2 -6.26849 -3.59184 6.65049
1160 1 -5.55059 -4.02809 6.28797
2910 2 -4.94451 -3.40666 6.84056
491 1 -3.94895 -2.95739 5.87907
2926 2 -4.23154 -3.53759 6.51375
2831 2 -3.58452 -4.05763 6.87561
3200 2 -3.57016 -4.06492 6.12808
1518 1 -3.21248 -3.12249 6.5769
2556 1 -2.13321 -4.33296 7.06286
2893 2 -1.7781 -4.0832 5.82923
2508 1 -1.50223 -3.78701 6.64919
2273 1 -1.68541 -3.07019 6.16222
219 1 -2.51454 -3.57285 6.10817
3235 2 -0.890889 -4.01496 5.79485
1833 1 -0.82212 -4.28987 7.34704
3566 2 -0.2372 -2.96909 7.20233
2418 1 -0.619734 -3.59077 6.62917
2699 1 -6.4905 -1.99975 6.07274
2420 1 -6.04943 -1.62798 6.84744
1218 1 -7.31119 -1.94735 6.90429
220 1 -6.76393 -2.6018 6.98847
2057 1 -5.70619 -2.38084 7.24249
2929 2 -5.39173 -1.87728 5.81663
3168 2 -4.52967 -2.09124 6.30579
815 1 -5.6778 -2.8042 6.3632
1656 1 -4.29419 -1.74938 7.1593
165 1 -3.78623 -2.40708 6.76905
42 1 -3.77252 -1.55332 5.77289
1980 1 -3.14262 -1.91842 6.76454
821 1 -2.44662 -2.87158 6.46838
3417 2 -2.23712 -1.92922 6.30574
3111 2 -1.52432 -1.5541 6.47322
608 1 -0.646467 -2.13981 6.69812
573 1 -1.36724 -2.55824 6.74614
2667 1 -0.829945 -2.83367 6.03352
2107 1 -0.261108 -1.81057 7.22721
77 1 -7.0814 -0.283884 6.55736
976 1 -6.55525 -1.09458 6.43705
2516 1 -6.17259 -0.278764 6.46055
1052 1 -6.83636 -0.36109 5.75441
2446 1 -4.7785 -0.263181 6.38049
176 1 -4.5457 -0.885645 7.21913
2673 1 -5.31008 -0.845628 6.57896
559 1 -5.36948 -1.3593 7.29781
1320 1 -3.9785 -0.964408 6.67275
952 1 -4.00439 -0.478965 5.85163