ITEM: TIMESTEP
0
ITEM: NUMBER OF ATOMS
3594
ITEM: BOX BOUNDS pp pp pp
-7.0643974090722432e+00 7.0643974090722432e+00
-7.0643974090722432e+00 7.0643974090722432e+00
-7.0643974090722432e+00 7.0643974090722432e+00
ITEM: ATOMS id type x y z
2045 1 -6.18738 -6.59797 -6.00612
2067 1 -6.91044 -6.58337 -6.0978
1668 1 -6.01209 -6.72772 -6.79498
3364 2 -4.50382 -6.68361 -6.9165
2124 1 -5.18084 -6.15526 -5.94375
467 1 -5.4306 -6.06885 -6.84734
432 1 -5.26968 -6.90943 -6.07376
2810 2 -4.06124 -6.33222 -6.29798
3073 2 -3.63469 -5.96251 -5.70907
2595 1 -3.01347 -6.38393 -6.5409
37 1 -2.0871 -6.42177 -6.97118
884 1 -3.01652 -6.93882 -5.77363
2496 1 -2.54654 -6.34616 -5.90818
626 1 -1.68527 -5.6741 -6.22671
787 1 -1.01891 -5.97892 -7.01094
380 1 -0.730155 -6.57594 -6.52311
3487 2 -1.43618 -6.71457 -5.83298
946 1 -0.0069766 -6.6461 -6.00095
3167 2 0.196556 -6.01056 -6.99838
396 1 0.482187 -6.0897 -5.75752
2048 1 1.06369 -6.68839 -6.65931
2394 1 1.57993 -6.31315 -5.94022
2240 1 1.65146 -6.15692 -6.76604
2888 2 3.09025 -6.22705 -6.25834
3592 2 2.54226 -6.50497 -6.72584
382 1 2.22124 -6.98055 -5.84253
3367 2 3.67999 -5.90723 -5.73516
679 1 4.0925 -5.69633 -6.8372
315 1 4.21174 -6.45909 -6.79946
2055 1 4.13449 -6.98181 -5.78466
1836 1 4.68177 -6.09501 -6.0374
364 1 5.49096 -5.94861 -6.31926
878 1 5.10365 -6.15182 -7.05896
2703 1 5.86236 -6.59902 -7.02517
1148 1 6.45211 -5.93464 -6.38038
1475 1 6.63448 -6.74243 -6.67038
3323 2 -6.47525 -5.58526 -6.60586
3388 2 -6.04513 -5.39759 -6.03362
1930 1 -6.53144 -4.28182 -5.79763
2514 1 -4.96281 -4.574 -6.36707
682 1 -4.87848 -5.54204 -6.3288
2328 1 -5.30292 -5.21307 -6.99083
1269 1 -5.59962 -4.53583 -6.96616
2428 1 -3.96303 -5.2452 -6.57848
1542 1 -3.63853 -4.69399 -5.69347
221 1 -4.44136 -5.09011 -5.69481
804 1 -2.36255 -5.63333 -6.43376
1799 1 -2.43375 -4.57828 -6.36271
572 1 -3.08076 -5.16205 -6.41078
1621 1 -0.723512 -5.61926 -6.20342
2733 2 -1.34247 -4.54946 -6.44878
2626 1 -0.478752 -5.19723 -6.92094
860 1 -0.0274265 -5.48433 -5.78218
343 1 0.0513314 -4.65283 -6.01917
2188 1 0.00700815 -4.40448 -6.93605
3182 2 0.690912 -5.5586 -6.79084
3280 2 1.18642 -5.16736 -6.23666
2202 1 1.74084 -5.06744 -7.04504
2294 1 2.79109 -5.00085 -6.60397
328 1 2.17517 -5.46923 -6.19595
2661 1 2.10975 -4.4476 -6.41837
271 1 3.02544 -4.71617 -5.76052
923 1 3.34315 -5.4274 -6.98398
1926 1 3.81263 -4.8741 -6.61238
601 1 3.82531 -4.5114 -5.77622
1063 1 4.52086 -4.66331 -6.23859
592 1 4.58216 -5.44052 -6.28082
2956 2 5.6079 -4.83221 -6.70868
2058 1 6.72914 -5.467 -5.80038
3533 2 5.915 -4.43888 -6.07918
2604 1 6.82288 -4.83429 -6.33431
541 1 -6.08353 -4.16425 -6.51402
2228 1 -7.06283 -4.06372 -6.56788
2672 1 -6.60908 -3.45122 -5.84213
3162 2 -6.00114 -3.20371 -6.80697
1575 1 -5.02274 -3.64881 -6.66279
1694 1 -5.36803 -3.96685 -5.91287
1202 1 -4.65203 -3.32679 -6.05136
1365 1 -4.41526 -4.12029 -5.85976
3567 2 -3.68906 -3.68236 -6.4973
2790 2 -3.49197 -4.17634 -7.0081
746 1 -2.4887 -3.97446 -7.03385
1001 1 -2.10025 -3.6787 -6.27391
2685 1 -2.68573 -3.19353 -7.03828
2920 2 -3.1275 -3.24095 -6.01393
3406 2 -0.955356 -4.2268 -5.98434
952 1 -1.12607 -3.17542 -6.14943
1830 1 -1.43181 -3.51458 -6.76636
1064 1 -0.589837 -3.721 -6.99901
1906 1 -0.141204 -3.75569 -6.382
2244 1 0.369344 -3.45832 -5.81881
29 1 1.51595 -3.80614 -5.9233
1178 1 0.943391 -4.14115 -6.60326
3325 2 0.863463 -3.07827 -6.55265
1431 1 2.34201 -3.84377 -5.74281
2473 1 2.19236 -3.67894 -6.58064
1816 1 2.40811 -3.13632 -7.01093
1935 1 2.66852 -2.964 -5.81051
3024 2 3.39219 -3.78493 -6.51754
1346 1 4.40179 -4.0117 -6.86918
2785 2 3.67593 -3.31722 -5.93728
2008 1 4.92224 -3.72951 -6.07997
301 1 5.36149 -3.68707 -6.69973
200 1 4.6573 -3.03886 -6.44006
1608 1 5.66473 -3.1287 -6.0243
1338 1 6.71948 -3.08713 -6.41074
1569 1 6.19146 -3.46314 -6.72258
1237 1 -5.8947 -1.73522 -6.64843
1968 1 -6.89519 -2.60552 -6.12111
2129 1 -6.57592 -1.95522 -6.4589
3518 2 -5.66679 -2.79512 -6.39974
3492 2 -5.48783 -2.43204 -5.77541
1286 1 -4.54291 -1.83016 -6.45867
405 1 -4.70705 -2.56625 -6.89269
875 1 -3.61283 -2.14974 -6.18353
502 1 -3.77076 -2.74946 -7.02315
700 1 -4.20582 -2.66192 -6.02028
1556 1 -2.03184 -2.81694 -6.30549
1086 1 -2.97541 -2.44654 -6.78245
1656 1 -2.89728 -1.91445 -5.83808
1746 1 -2.45541 -2.04864 -6.48504
3033 2 -1.28982 -2.2907 -6.72015
2852 2 -0.91209 -1.92389 -6.21272
1062 1 -0.210397 -2.74162 -5.70598
2307 1 -0.278627 -2.79604 -6.45407
1500 1 0.289194 -2.11465 -6.01605
616 1 0.194866 -1.75398 -6.76101
3335 2 1.4713 -2.72014 -6.25384
851 1 1.74478 -1.79287 -6.94538
2043 1 0.932089 -1.71951 -5.72718
1005 1 0.987134 -1.78094 -6.73264
3144 2 1.95323 -2.25963 -5.73175
2001 1 2.38728 -2.32124 -6.76492
943 1 3.04882 -1.98947 -6.26266
1753 1 2.4597 -1.50727 -6.63218
791 1 3.29896 -2.70256 -6.71015
2359 1 4.01095 -2.44491 -6.60967
236 1 3.81752 -1.98406 -5.75845
2915 2 5.47237 -2.30733 -6.86076
672 1 5.07007 -2.53954 -5.91023
2623 1 4.68059 -1.96806 -6.1287
2610 1 4.77339 -1.65589 -6.89344
3111 2 6.04654 -2.08001 -6.37758
1625 1 6.96123 -2.34788 -6.95635
2937 2 6.35522 -1.60318 -5.96549
2509 1 -6.45442 -0.801009 -6.19128
2554 1 -6.70628 -1.23477 -6.7922
2469 1 -6.8995 -0.0610881 -5.83602
2539 1 -5.8201 -1.13946 -5.67155
3106 2 -5.8039 -0.600804 -7.03252
1182 1 -4.62219 -0.927977 -6.69489
2608 1 -5.41242 -1.28428 -6.28447
3354 2 -5.36619 -0.297633 -6.50018
2728 1 -4.08991 -1.41173 -5.85516
356 1 -4.11801 -0.288113 -6.89366
193 1 -4.06028 -0.524759 -6.01397
1306 1 -3.42907 -0.00968304 -6.66092
2836 2 -3.16941 -1.16153 -6.65047
3231 2 -2.82181 -0.797088 -6.18107
593 1 -2.25495 -0.353704 -6.90832
2271 1 -2.10054 -1.33386 -7.00053
2637 1 -1.23698 -0.655404 -6.02632
1934 1 -1.87482 -1.32441 -6.07538
1531 1 -1.85109 -0.124055 -6.1466
2106 1 -1.37268 -0.980518 -6.83069
1905 1 -0.527046 -0.897678 -6.72579
1335 1 -0.589563 -0.244288 -5.92122
357 1 0.0834387 -0.475467 -6.15913
1545 1 0.491411 -1.1425 -6.12004
2935 2 1.63481 -0.267836 -6.58666
1623 1 1.80587 -1.16359 -6.14942
2802 2 1.04715 -0.566297 -6.95185
1979 1 2.74381 -1.061 -6.0894
233 1 2.63804 -0.578404 -6.97109
801 1 3.22831 -0.155875 -6.12936
3112 2 3.65424 -1.27345 -6.91165
3310 2 3.97569 -0.998692 -6.25126
1937 1 3.61593 -0.145494 -6.95688
481 1 5.26843 -1.24514 -6.17312
2890 2 4.56066 -0.494902 -5.86624
327 1 5.30352 -1.06047 -6.93307
1438 1 4.69139 -0.692122 -6.98624
2512 1 6.81867 -0.693659 -6.64908
1402 1 6.02327 -0.846685 -6.76172
1198 1 5.79573 -0.238484 -6.04493
2021 1 6.55406 -0.338587 -5.9367
2262 1 -6.35011 -6.4558 -5.14318
1321 1 -6.79003 -5.89149 -5.41499
1171 1 -6.38205 -6.57725 -4.26741
1797 1 -4.9435 -5.8215 -5.19751
2220 1 -4.74963 -6.60453 -5.29703
3523 2 -5.15088 -6.90606 -4.45787
915 1 -5.68859 -6.34789 -5.41978
1620 1 -5.44469 -5.75056 -4.60807
2248 1 -4.16484 -6.19053 -4.69709
1630 1 -3.64972 -6.79981 -5.03903
1347 1 -3.27116 -6.04473 -4.42058
530 1 -2.66903 -6.56793 -5.00128
2592 1 -1.99159 -6.35974 -4.70804
3565 2 -1.00796 -6.35716 -5.41666
1841 1 -1.87443 -5.68491 -5.28214
2196 1 -1.06628 -6.88428 -4.32415
1839 1 -0.0372601 -6.91488 -5.02285
3431 2 -0.200185 -5.71628 -4.27473
3109 2 -0.581291 -6.17873 -4.74426
1715 1 0.607606 -6.67207 -4.4974
1664 1 1.47873 -5.68045 -4.55946
190 1 1.01022 -6.07427 -5.09557
483 1 1.99532 -6.07722 -5.3407
2140 1 2.90338 -5.91881 -4.88437
1385 1 3.00831 -6.74079 -5.3267
3429 2 1.94893 -6.61199 -4.35731
568 1 3.75504 -6.52295 -4.95059
1870 1 4.23122 -6.19746 -4.3909
1215 1 5.16314 -5.79179 -5.53522
538 1 4.67164 -6.8333 -5.11474
1248 1 5.02767 -6.16624 -4.79654
3334 2 5.82292 -6.77734 -5.50973
3381 2 6.18879 -6.29271 -5.05814
3247 2 6.66401 -6.02245 -4.58112
1645 1 -6.30747 -5.63473 -4.7328
3442 2 -5.80117 -5.02045 -5.48462
2429 1 -5.96266 -4.77247 -4.31363
1152 1 -6.83275 -4.98261 -5.15286
2718 1 -6.46569 -4.28944 -4.97984
3392 2 -5.23873 -4.64424 -5.19221
346 1 -3.74575 -4.7715 -4.70184
1626 1 -4.25266 -5.44641 -4.73068
3004 2 -3.10157 -5.54412 -5.39627
460 1 -1.94031 -4.88257 -5.58045
1253 1 -2.67871 -4.47851 -5.64083
2981 2 -2.62331 -5.07251 -4.7517
2192 1 -1.61921 -5.54565 -4.49357
1967 1 -1.21052 -5.23455 -5.53291
402 1 -1.70181 -4.4169 -4.9897
1904 1 -1.1906 -4.86746 -4.51855
2478 1 -0.293213 -4.71332 -4.4624
736 1 -0.409758 -5.07264 -5.19646
2562 1 0.58522 -4.35854 -4.6198
2175 1 0.557144 -4.30633 -5.48666
2191 1 0.561672 -5.40686 -4.9863
2857 2 1.80834 -4.46435 -5.03187
3450 2 1.48726 -5.02221 -5.49413
1142 1 2.88743 -5.04404 -4.87114
553 1 2.6225 -5.57726 -5.52287
506 1 3.7185 -4.241 -4.29979
3556 2 3.94087 -5.49286 -5.15763
3417 2 4.32455 -5.09653 -4.74145
2460 1 3.5568 -4.37589 -4.99431
2084 1 5.05725 -4.87083 -5.60483
988 1 5.66082 -5.2233 -4.73679
84 1 5.36944 -4.31107 -4.92755
2708 1 5.80897 -5.26601 -5.55072
1246 1 6.93364 -4.44899 -4.47231
2012 1 6.08713 -4.53505 -4.44867
69 1 6.45779 -4.99961 -5.14752
749 1 -5.87171 -3.5452 -4.5994
2197 1 -5.95817 -3.53428 -5.36415
2961 2 -4.8915 -4.20819 -4.64386
2054 1 -5.36583 -2.86548 -4.46615
71 1 -4.9816 -3.30532 -5.25356
3041 2 -4.39848 -3.79108 -4.24259
1990 1 -3.9864 -3.78158 -5.2607
2457 1 -4.11491 -2.95401 -5.26857
836 1 -3.23724 -4.00224 -5.08138
1433 1 -3.37858 -3.36325 -4.52768
2306 1 -2.37768 -3.90402 -4.81919
2809 2 -2.74907 -2.90054 -5.46558
1117 1 -1.90438 -3.79922 -5.42081
3555 2 -0.782135 -3.82199 -5.43039
1474 1 -1.11969 -4.11739 -4.24779
2114 1 -1.5884 -3.0191 -5.5821
1114 1 -1.53442 -3.49784 -4.58767
2963 2 -0.3516 -3.5337 -4.89558
3040 2 0.156292 -3.26786 -4.45179
540 1 1.08239 -3.78775 -4.40571
120 1 1.00551 -3.55584 -5.2687
1670 1 1.81962 -3.23539 -5.12703
693 1 3.01492 -3.78753 -5.20978
3133 2 2.42169 -4.03691 -4.48607
2372 1 2.68126 -2.87566 -4.73505
727 1 4.46703 -3.71696 -4.67856
1071 1 4.43411 -4.14828 -5.39824
3449 2 4.2213 -2.96064 -5.2904
695 1 3.6036 -3.22754 -4.41384
431 1 5.25402 -3.65714 -5.33251
758 1 5.38216 -3.25303 -4.69961
752 1 5.82092 -3.73555 -4.25664
3050 2 6.2918 -4.0351 -5.61997
2847 2 6.6877 -3.64376 -5.13829
3034 2 7.0245 -3.19579 -4.69436
293 1 -6.93408 -2.29204 -5.20153
1910 1 -6.26411 -2.77094 -5.36026
1526 1 -6.38598 -1.78057 -4.55947
450 1 -6.48103 -1.76309 -5.59993
636 1 -5.78453 -2.32433 -4.75839
2940 2 -5.03045 -1.92899 -5.49006
1553 1 -5.34107 -1.9026 -4.30357
2774 2 -4.57764 -1.66312 -4.94868
1328 1 -3.65019 -2.39169 -4.46337
1838 1 -3.684 -2.22225 -5.28705
688 1 -4.49302 -2.62571 -4.43618
3203 2 -2.51358 -2.67679 -4.78829
3352 2 -2.01318 -2.33069 -4.30914
1772 1 -2.40618 -1.42647 -5.07431
940 1 -3.15281 -1.63957 -4.59289
947 1 -1.82016 -2.1145 -5.58814
188 1 -0.906114 -2.48618 -5.19914
2393 1 -0.878875 -1.76436 -4.42489
2206 1 -0.853612 -2.66495 -4.33182
183 1 -1.426 -1.72449 -4.93721
3300 2 -0.521245 -1.54254 -5.61277
2267 1 0.00953502 -2.16601 -4.75498
783 1 0.670756 -2.5884 -5.4384
2179 1 0.819273 -1.86751 -4.88274
1557 1 1.225 -2.60201 -4.67382
3543 2 2.85313 -1.46772 -4.47483
1946 1 1.98926 -2.4212 -4.44266
2815 2 2.44548 -1.77569 -5.15939
2025 1 3.25161 -2.43927 -5.61957
2550 1 4.2163 -1.53197 -5.05396
1240 1 3.57711 -2.11665 -4.86454
2765 2 4.67392 -2.55569 -4.82998
2752 2 5.23009 -2.22216 -4.44148
1822 1 5.59751 -2.04955 -5.40552
2716 1 5.03866 -1.44875 -5.35402
1650 1 5.92448 -2.82439 -5.13967
2607 1 6.53604 -2.6946 -5.62013
1591 1 6.35559 -2.14612 -4.81398
2675 1 6.45434 -1.52072 -4.27248
1109 1 -5.86659 -1.26552 -4.87425
15 1 -6.11529 -0.209442 -5.50241
3574 2 -6.85309 -0.761215 -4.76926
2876 2 -6.48587 -0.313338 -4.33048
1378 1 -5.30673 -0.880084 -4.36333
613 1 -4.51929 -0.304824 -5.07048
260 1 -4.80155 -0.860679 -5.59355
1324 1 -5.50575 -0.512042 -5.08918
660 1 -3.74652 -0.360913 -4.44839
2364 1 -3.75339 -0.664384 -5.22341
3467 2 -4.33505 -1.35308 -4.3719
153 1 -3.48347 -1.37991 -5.21498
2665 1 -3.12382 -0.81257 -4.60802
3160 2 -2.12915 -0.1251 -4.95616
3199 2 -2.61174 -0.455984 -5.61923
1887 1 -2.18206 -1.12093 -4.39613
1177 1 -0.880872 -0.0104856 -5.1519
64 1 -1.41796 -0.920086 -5.24177
1496 1 -0.652845 -0.22403 -4.34093
1651 1 -1.32437 -0.99053 -4.44662
2880 2 -0.230735 -1.00237 -5.12824
3181 2 0.297558 -0.60966 -4.79516
1977 1 0.842569 -0.272783 -5.59971
2358 1 1.21897 -0.964587 -5.57984
1391 1 1.61128 -0.162587 -5.03542
2843 2 0.853427 -0.401838 -4.36585
493 1 1.91491 -0.76943 -4.24128
2166 1 1.57182 -1.37698 -4.94165
367 1 2.51018 -0.365226 -4.56156
880 1 3.17931 -0.341068 -5.16717
2325 1 2.10826 -0.8159 -5.4275
452 1 3.42133 -1.13982 -5.37604
1091 1 3.94589 -0.675353 -4.72859
2851 2 5.05072 -0.0256296 -5.16068
1399 1 4.992 -0.988967 -4.51223
1043 1 6.48357 -0.133819 -4.92808
1811 1 5.85208 -0.630366 -5.40457
2253 1 5.82927 -1.24 -4.94375
1932 1 5.88034 -0.620173 -4.47754
3583 2 6.8638 -1.1722 -5.32561
360 1 -5.95813 -5.97827 -4.02257
274 1 -6.91838 -6.68433 -3.71487
617 1 -6.44674 -6.14924 -3.2451
619 1 -5.97114 -6.8423 -3.40944
2758 2 -4.86338 -6.46473 -3.94687
1682 1 -5.49314 -6.05018 -3.04654
521 1 -4.96611 -6.86896 -2.90561
1247 1 -3.55075 -6.69064 -3.94495
3414 2 -4.38523 -6.05159 -3.53762
1421 1 -3.41741 -6.64991 -3.03309
864 1 -2.56238 -6.05817 -4.13517
644 1 -2.066 -5.70771 -3.41131
2896 2 -2.06664 -6.85038 -3.35806
2159 1 -1.37773 -6.00503 -3.99536
2246 1 -0.720718 -6.31652 -3.46479
1528 1 -0.000703851 -6.63979 -3.3748
2094 1 -0.4609 -5.73013 -2.95648
2066 1 0.0124116 -7.02061 -4.06992
1061 1 1.16497 -5.94464 -3.90815
1549 1 0.98108 -7.01563 -3.6669
842 1 0.693071 -6.22757 -3.224
2031 1 1.45296 -6.3248 -3.0501
2382 1 1.63839 -7.03299 -3.3482
2928 2 2.40298 -6.16486 -3.88034
2987 2 2.70412 -5.79484 -3.31715
1432 1 2.99957 -6.90637 -2.98666
479 1 3.38232 -6.48317 -4.19849
1017 1 3.64709 -5.69849 -3.97888
1168 1 3.80046 -6.7565 -2.97166
1856 1 3.98405 -6.19001 -3.46755
2368 1 5.61483 -5.76962 -3.96308
922 1 4.82639 -5.7949 -3.71615
3051 2 4.99357 -6.90871 -3.57036
3194 2 5.27096 -6.59439 -2.93898
614 1 5.88801 -6.56772 -4.01408
859 1 6.36804 -6.77715 -3.1423
2696 1 6.25986 -5.87233 -3.34771
2993 2 -6.61616 -5.24168 -3.67684
3154 2 -6.50028 -4.77643 -3.17689
830 1 -5.27833 -5.15903 -3.95411
786 1 -5.19627 -5.22917 -3.18139
2180 1 -4.74632 -4.29862 -3.15394
2723 1 -4.31261 -4.93198 -3.82647
1958 1 -3.58847 -5.33709 -4.06738
729 1 -3.53579 -4.50229 -3.35773
2793 2 -2.3484 -4.83175 -4.07712
544 1 -2.76219 -4.90168 -3.04267
3434 2 -1.94446 -4.44036 -3.46113
899 1 -2.95891 -5.62575 -3.49987
1122 1 -1.00412 -5.0847 -3.86252
2674 1 -1.22551 -5.4774 -3.21127
2261 1 -0.529337 -4.76344 -3.19921
3093 2 0.238431 -5.46115 -3.76245
3290 2 0.584661 -4.93798 -3.29868
231 1 1.5562 -4.39624 -3.69088
748 1 1.15938 -4.99236 -4.22179
196 1 1.60042 -5.43948 -3.27498
651 1 2.17655 -5.17368 -4.22549
750 1 2.15782 -4.87667 -3.54389
1224 1 3.16338 -4.68831 -3.41431
733 1 3.21448 -5.03245 -4.15514
838 1 3.93547 -4.33778 -2.96116
241 1 4.04412 -4.97895 -3.47897
3456 2 4.78694 -4.7336 -4.22291
2787 2 5.12867 -4.30513 -3.65083
2219 1 4.61462 -5.14481 -2.83114
2076 1 5.50476 -5.35642 -3.08095
3016 2 6.93216 -5.46542 -4.21003
522 1 6.17654 -5.01409 -3.77131
1095 1 6.61987 -4.48383 -3.22588
895 1 -6.9387 -3.95719 -3.83622
1762 1 -6.22281 -4.04172 -4.16556
2349 1 -5.97784 -3.6926 -3.34874
3424 2 -6.63374 -2.86749 -4.22189
2535 1 -6.72202 -3.51687 -2.97772
235 1 -5.36063 -4.19724 -3.75148
2729 1 -4.7439 -2.83543 -3.05717
607 1 -5.30885 -3.26871 -3.50177
3245 2 -4.11796 -3.49232 -3.52476
3344 2 -3.60147 -3.12014 -3.02388
1120 1 -3.35688 -4.15562 -4.20956
1099 1 -2.67895 -3.63712 -4.1691
283 1 -2.74514 -3.72541 -3.17538
3119 2 -1.38309 -4.23685 -2.95006
1264 1 -1.78475 -3.28254 -3.67956
1329 1 -0.915648 -3.36224 -3.70401
2100 1 -0.454658 -4.00869 -3.81246
1566 1 -0.286423 -3.18717 -3.2662
1028 1 0.414416 -4.02869 -3.79461
456 1 0.181191 -3.77637 -3.14173
3018 2 0.561337 -2.8481 -3.97095
278 1 1.04821 -3.68645 -3.23326
678 1 1.89718 -3.73666 -3.2405
1333 1 1.62171 -3.26868 -4.06169
3121 2 2.94812 -3.78484 -3.78588
710 1 2.37486 -2.89218 -3.85656
939 1 2.30556 -2.91034 -3.11693
3202 2 3.40332 -3.19524 -3.14818
1015 1 4.14563 -3.84347 -3.63466
1203 1 4.55441 -3.54134 -2.91849
3359 2 5.58562 -3.94157 -3.08595
2408 1 5.0614 -3.35687 -4.01102
2360 1 5.5653 -2.88443 -3.24081
2606 1 4.87019 -2.84974 -3.34329
1252 1 6.45273 -3.9887 -3.87838
2296 1 6.05447 -2.89103 -4.09326
2656 1 6.72599 -3.35759 -3.46791
2908 2 -6.34422 -2.71736 -3.53223
1302 1 -6.83357 -1.53985 -3.92136
1825 1 -7.00394 -1.86567 -3.17848
1084 1 -4.77659 -2.19648 -3.71026
3243 2 -5.65566 -2.29566 -3.2531
2350 1 -4.01848 -2.38312 -3.71625
790 1 -4.344 -1.90908 -2.89975
1162 1 -3.43755 -1.96364 -2.9865
2223 1 -2.75271 -1.78537 -3.82462
1551 1 -3.18879 -2.63918 -3.89083
711 1 -2.41957 -2.03825 -2.99617
474 1 -2.488 -2.82518 -3.35815
3055 2 -1.56437 -2.00395 -3.71158
1859 1 -1.00141 -2.71116 -3.24903
3222 2 -1.11763 -1.4264 -3.3082
1555 1 -0.411648 -2.2133 -3.76649
2071 1 0.252171 -1.53323 -4.12315
2516 1 0.0890278 -2.43104 -2.85016
172 1 0.213992 -1.66835 -3.30647
423 1 1.69307 -1.73869 -4.05146
2532 1 0.956542 -1.47556 -3.89455
3253 2 1.39875 -2.19111 -2.90854
3242 2 1.07224 -2.48623 -3.50833
2211 1 2.34501 -2.12923 -3.51851
487 1 3.23549 -2.53538 -4.12284
2498 1 3.34703 -1.92864 -3.3788
1576 1 3.93549 -2.01296 -4.15561
424 1 4.19375 -2.80714 -3.86358
2645 1 4.28455 -1.78415 -3.32396
3028 2 5.31103 -1.86973 -3.94847
605 1 4.73661 -2.15411 -2.93133
2103 1 6.59914 -2.22996 -3.97989
2862 2 5.81509 -1.58339 -3.36736
1955 1 6.31787 -2.73244 -3.23125
774 1 -5.87868 -1.37466 -3.67374
3486 2 -5.9504 -0.158564 -3.82689
843 1 -6.21077 -1.21704 -2.9397
2434 1 -6.52357 -0.502679 -2.92612
542 1 -6.95754 -0.846514 -3.49523
2019 1 -4.59795 -0.321579 -4.12081
1397 1 -4.99724 -1.32913 -3.56312
342 1 -4.55171 -0.297256 -3.20986
374 1 -5.5578 -0.915086 -3.04276
2313 1 -4.76369 -1.06375 -2.91086
2861 2 -3.82735 -1.29907 -3.86186
3196 2 -3.57303 -0.919868 -3.25366
802 1 -2.54947 -0.801666 -3.83084
2948 2 -3.09455 -0.37165 -3.14514
354 1 -2.56592 -1.28578 -3.17804
2647 1 -1.33507 -0.489013 -3.79078
629 1 -1.87427 -0.849987 -3.26188
1390 1 -0.428334 -1.11759 -4.03216
2966 2 -0.571425 -0.987994 -3.0087
262 1 -0.619606 -0.0386471 -3.42191
1040 1 0.0887646 -0.438394 -3.63682
1505 1 0.571308 -0.994569 -3.37643
796 1 1.3757 -1.05019 -3.29312
591 1 2.18731 -1.19874 -3.66817
1217 1 2.69087 -1.32692 -2.942
1288 1 2.46241 -0.499409 -3.42732
3499 2 3.23326 -0.986172 -3.95219
771 1 4.27997 -1.24902 -4.01512
2866 2 3.75813 -0.622826 -3.26396
3159 2 4.23074 -0.135047 -2.8488
1606 1 4.80054 -0.386432 -3.91683
1750 1 5.63141 -0.296777 -3.57797
1235 1 4.857 -0.943398 -3.32284
369 1 5.51192 -0.373605 -2.93754
1814 1 6.35337 -0.88824 -3.86858
2438 1 6.61469 -0.178635 -3.30943
2601 1 -6.88891 -6.13524 -2.61758
226 1 -6.66969 -6.03882 -1.72426
1893 1 -6.07554 -5.76419 -2.44603
1521 1 -6.96183 -6.79269 -1.49545
3382 2 -5.86003 -6.70117 -2.10282
2153 1 -4.58776 -6.43975 -2.32565
2291 1 -5.03219 -5.80822 -2.37418
3484 2 -5.499 -6.40651 -1.46374
503 1 -4.30828 -5.83075 -1.66486
1738 1 -3.69927 -6.58164 -2.16319
2477 1 -2.2738 -5.8552 -1.82487
1289 1 -2.67919 -5.95384 -2.76082
1757 1 -2.93626 -6.27262 -1.88301
2101 1 -2.81626 -6.83286 -2.34367
3500 2 -1.63314 -6.60181 -2.69142
3373 2 -1.19262 -6.17012 -2.21696
3366 2 -0.773499 -5.87451 -1.73369
387 1 -0.549616 -6.99942 -2.59599
2121 1 -0.0137806 -6.81807 -1.64251
732 1 -0.0946286 -6.42667 -2.63433
2044 1 0.363455 -5.92444 -2.18758
2885 2 1.27355 -6.41635 -1.70708
410 1 1.15136 -5.73715 -2.54415
3517 2 0.950992 -6.89746 -2.26428
1806 1 2.36414 -6.64635 -2.75866
1852 1 1.94919 -5.78042 -2.42563
2109 1 2.51802 -5.88826 -1.80362
964 1 2.75174 -6.59327 -1.86238
3108 2 3.35465 -5.65309 -2.80334
2391 1 3.41702 -5.81253 -1.44109
370 1 3.49835 -6.35541 -2.0951
165 1 4.46056 -6.85301 -2.21702
2648 1 4.37124 -5.97773 -2.69216
355 1 4.25935 -6.13835 -1.58075
3190 2 5.48612 -6.19009 -2.26173
154 1 5.20776 -6.6453 -1.47482
2823 2 5.99119 -5.76721 -2.01612
1265 1 6.63139 -6.86002 -2.43948
975 1 6.13225 -6.87028 -1.46783
879 1 -6.61862 -5.10558 -1.95708
3145 2 -5.89054 -4.58757 -2.72314
3237 2 -5.58571 -4.32551 -2.08748
987 1 -4.71904 -4.9481 -2.50636
1844 1 -4.81641 -5.17417 -1.60489
308 1 -5.75182 -5.3132 -1.92229
2907 2 -3.94339 -5.55063 -2.81282
615 1 -3.97493 -4.32237 -2.57933
1085 1 -4.10516 -4.54688 -1.74562
3440 2 -3.4824 -5.38305 -2.21217
825 1 -2.19358 -5.33764 -2.70813
937 1 -2.1307 -4.53723 -2.24144
3309 2 -3.16877 -5.05643 -1.66464
2051 1 -1.2586 -5.05992 -2.43446
795 1 -1.81668 -5.27425 -1.67241
2690 1 -0.8219 -4.69876 -1.98621
1900 1 -0.191271 -4.32153 -2.36526
1112 1 -0.163014 -5.24052 -2.29763
444 1 0.049436 -4.42144 -1.52303
2747 2 0.920059 -4.69855 -2.73872
3252 2 1.48979 -4.32554 -2.41085
1292 1 0.749798 -4.90742 -1.78614
2142 1 1.44636 -5.27366 -1.77479
312 1 2.06721 -5.06996 -2.66216
2053 1 2.79181 -4.31807 -1.65264
2207 1 2.76385 -4.51043 -2.58406
1273 1 2.49467 -5.03735 -1.8925
3255 2 3.93847 -4.7465 -1.77319
2947 2 3.62555 -5.20885 -2.30689
2342 1 4.63489 -5.51608 -2.01612
344 1 5.26662 -4.89194 -2.29312
279 1 6.15949 -4.86662 -2.81192
1486 1 6.02892 -4.54656 -1.88025
2503 1 6.90903 -5.40916 -2.54179
489 1 6.89436 -4.63267 -1.98262
991 1 -6.5401 -3.93102 -1.7804
1972 1 -6.9551 -2.85123 -2.71897
917 1 -6.08216 -3.43436 -2.48022
1674 1 -5.22817 -3.63721 -2.73328
3070 2 -5.09098 -4.00681 -1.48258
1285 1 -5.31705 -3.03189 -2.19839
122 1 -3.63324 -3.88618 -1.76735
2440 1 -4.38109 -3.55274 -2.33983
883 1 -3.95632 -3.05909 -1.78846
2151 1 -3.07227 -4.22478 -2.49867
2569 1 -2.26806 -3.73536 -2.47171
1325 1 -2.75622 -3.66846 -1.70369
2829 2 -0.895592 -3.68953 -2.49295
2024 1 -1.67623 -3.94197 -1.63876
849 1 -1.80636 -3.19398 -1.83292
587 1 -1.84552 -2.98987 -2.81139
2962 2 -0.182408 -3.09488 -1.56004
2978 2 -0.552827 -3.13699 -2.25895
1352 1 0.563616 -3.77788 -2.19913
1466 1 0.595988 -3.0996 -2.65067
3278 2 1.77631 -3.92575 -1.7389
1869 1 1.08271 -3.03246 -1.61153
2571 1 1.68692 -3.13444 -2.41726
2014 1 2.56017 -3.66263 -2.7398
659 1 2.73078 -3.24055 -2.10959
2297 1 3.34299 -4.05969 -2.44608
1298 1 3.46986 -3.41641 -1.69605
1945 1 4.20237 -3.6562 -2.14969
1251 1 4.8579 -4.23613 -2.36945
1901 1 5.18285 -3.74227 -1.70322
1850 1 5.12218 -3.145 -2.45293
2600 1 4.59572 -3.26961 -1.53844
2135 1 5.4543 -2.89589 -1.67374
962 1 7.02299 -4.05255 -2.46826
3400 2 6.03253 -3.55254 -2.63699
3023 2 6.60786 -3.20231 -1.96369
983 1 -6.23428 -2.79802 -1.96023
772 1 -6.06549 -1.91891 -1.48962
5 1 -6.83959 -2.16414 -2.33021
1404 1 -6.53025 -1.41706 -2.10322
3544 2 -5.53679 -2.05523 -2.55114
3535 2 -5.17569 -1.56472 -2.13736
1778 1 -4.93555 -2.4956 -1.58319
473 1 -3.9316 -2.00538 -2.10658
713 1 -4.4063 -2.59539 -2.17092
82 1 -3.41628 -1.61589 -1.61294
3435 2 -3.01149 -2.81977 -2.24787
2750 2 -2.37881 -2.2759 -1.70838
1418 1 -2.95304 -1.44319 -2.22524
2126 1 -1.51115 -2.26859 -2.58396
212 1 -1.04395 -2.40872 -1.76969
2182 1 -0.672858 -2.09403 -2.56976
53 1 -1.09133 -1.47568 -1.96233
1899 1 -0.309238 -1.66811 -1.61492
1050 1 0.077665 -1.79357 -2.34916
3390 2 1.81086 -1.68285 -2.43406
2572 1 0.726318 -2.27384 -2.21581
2314 1 1.63421 -2.41843 -1.67743
1940 1 3.12784 -1.49501 -2.29941
1082 1 2.67505 -2.36245 -2.56859
1826 1 2.35813 -2.60905 -1.8939
2468 1 2.99567 -2.0903 -1.6823
2806 2 4.09924 -2.30157 -2.09373
2976 2 3.68737 -2.72607 -2.72967
1013 1 5.51226 -1.45643 -2.03475
218 1 5.31073 -2.27977 -2.4809
3244 2 4.61681 -1.92233 -1.55103
1280 1 6.5145 -2.18788 -2.5364
857 1 6.04507 -2.1872 -1.91713
1760 1 6.86134 -1.63386 -1.56591
773 1 -5.9291 -0.888121 -1.61405
1931 1 -5.89068 -0.577244 -2.32091
3009 2 -6.98621 -0.282892 -1.82961
1089 1 -5.29477 -0.0280995 -1.68093
284 1 -4.98388 -0.383521 -2.51029
3175 2 -4.80201 -1.12542 -1.65196
93 1 -4.23705 -0.0589746 -2.33869
1719 1 -3.74002 -0.885264 -2.281
2564 1 -2.28989 -0.798871 -2.09156
529 1 -2.98176 -0.710826 -1.76099
1686 1 -1.39319 -0.563863 -2.0673
99 1 -1.70943 -0.242207 -2.73505
2385 1 -1.79329 -1.41185 -2.3797
3395 2 -0.350326 -0.682844 -2.35578
3332 2 0.0317629 -0.498958 -1.76194
1173 1 0.760756 -1.39643 -2.32449
6 1 0.695325 -0.371824 -2.76383
1851 1 0.952132 -1.02909 -1.63533
2613 1 1.39791 -0.59886 -2.40506
3062 2 2.10056 -1.36424 -1.82896
973 1 2.08128 -0.408047 -2.67069
782 1 2.92512 -0.63613 -2.27407
1115 1 3.91298 -1.40498 -2.67679
366 1 4.4355 -1.10493 -2.07143
1684 1 3.6527 -0.729627 -1.86105
665 1 4.91157 -0.674315 -1.46326
1396 1 5.43165 -0.544061 -2.1612
401 1 5.02018 -1.154 -2.66465
3161 2 6.71235 -0.669635 -2.34852
2892 2 6.15405 -1.19739 -2.81051
294 1 6.14528 -1.02883 -1.48366
974 1 -6.44494 -5.98924 -0.830111
1635 1 -6.21149 -6.75954 -0.725042
459 1 -6.16977 -6.1554 -0.139249
550 1 -4.85067 -6.96348 -0.351889
3129 2 -5.08159 -6.11223 -0.870034
3044 2 -4.69279 -5.87064 -0.41191
2015 1 -5.56 -6.68666 -0.0487432
115 1 -4.44076 -6.92544 -1.38787
2625 1 -3.74332 -6.50023 -0.410824
2544 1 -3.72829 -6.26927 -1.2373
135 1 -3.44816 -5.67819 -0.643316
2770 2 -2.56121 -6.72212 -0.463668
2487 1 -2.54854 -5.78952 -0.998704
2128 1 -1.07428 -5.98157 -0.475179
2538 1 -1.83345 -6.53504 -1.26218
602 1 -1.34841 -6.85435 -0.612698
1641 1 -0.573878 -6.56987 -0.967933
406 1 -0.467773 -6.24028 -0.1197
1312 1 0.266422 -6.36475 -0.951059
684 1 0.387605 -6.05183 -0.231028
105 1 0.490062 -7.02746 -1.06555
2814 2 1.8273 -6.38686 -1.08198
1928 1 0.696624 -5.80757 -1.36872
1832 1 1.10292 -6.65541 -0.457674
2074 1 2.78434 -7.05266 -0.678793
3061 2 2.36047 -6.04386 -0.721044
339 1 3.29651 -6.51195 -1.08435
3385 2 4.41 -6.61558 -0.480001
1294 1 3.66387 -5.8108 -0.228556
2953 2 4.96308 -6.37138 -0.0128206
1700 1 5.58918 -6.11429 -0.892829
1290 1 6.08565 -5.82244 -0.299529
2713 1 5.84789 -6.81255 -0.339564
669 1 6.61402 -6.42141 -0.59225
1571 1 -5.9441 -5.5101 -1.27832
3339 2 -6.98882 -4.81663 -0.335001
848 1 -5.92423 -5.34586 -0.398238
1689 1 -6.06863 -4.4722 -1.17869
129 1 -5.22688 -4.78048 -0.737891
2536 1 -4.06938 -5.16747 -0.885545
2698 1 -3.74533 -4.32925 -0.839088
1845 1 -4.46624 -4.65832 -0.539679
466 1 -3.02851 -4.68571 -0.0982755
2322 1 -2.79647 -5.62678 -0.0740905
3474 2 -2.21013 -4.28247 -0.744052
3117 2 -2.74474 -4.71743 -1.13589
1254 1 -0.779772 -5.22442 -0.0224662
1497 1 -1.18391 -4.82257 -1.29947
198 1 -1.7092 -5.64362 -0.933864
304 1 -0.830823 -4.3658 -0.487997
920 1 -1.44138 -4.95748 -0.310878
3122 2 -0.382442 -5.36364 -1.12818
3134 2 0.107874 -4.99481 -0.593927
3098 2 0.642094 -4.4613 -0.116961
768 1 1.5676 -5.10227 -0.110417
220 1 1.21126 -5.64743 -0.65686
2552 1 1.34489 -4.64103 -1.03544
1367 1 2.82783 -4.55545 -0.688366
1361 1 3.05497 -5.13679 -1.18043
1563 1 2.10831 -4.32076 -0.322575
3220 2 2.61352 -5.47771 -0.244247
1045 1 2.02114 -5.05753 -1.12882
714 1 3.78969 -4.79394 -0.291498
1828 1 3.9373 -5.50535 -0.903032
2998 2 4.32341 -4.39666 -1.28957
755 1 5.29197 -4.96008 -1.38749
2590 1 4.7772 -5.12898 -0.285682
1781 1 4.8529 -5.59957 -1.04316
2295 1 5.75708 -5.18025 -0.744233
336 1 5.42324 -4.8632 -0.0312572
3224 2 7.03188 -5.10334 -0.937119
1052 1 5.95796 -4.34508 -1.13234
2936 2 6.52776 -5.61853 -1.32875
2277 1 6.16137 -4.37795 -0.380722
1920 1 -6.58116 -3.8622 -0.844429
149 1 -6.5841 -3.61318 -0.154199
2062 1 -6.03145 -3.4836 -1.33051
877 1 -5.79558 -3.31159 -0.507418
965 1 -5.65668 -4.06307 -0.374859
3251 2 -4.82183 -3.5112 -1.07961
963 1 -3.78765 -3.96372 -0.087554
3404 2 -4.22901 -3.17915 -0.712694
2230 1 -3.22712 -3.54582 -0.86803
2556 1 -2.69121 -3.04024 -0.226043
2282 1 -2.41121 -3.13078 -0.980926
1994 1 -0.93991 -3.90345 -1.38413
3320 2 -1.79243 -3.77759 -0.305995
1037 1 -1.34807 -3.14163 -1.07501
14 1 -0.31884 -3.89659 -0.930546
1317 1 -0.628758 -2.96222 -0.468131
582 1 0.180276 -3.44143 -0.484703
2343 1 0.691352 -3.96157 -1.33132
1782 1 1.46171 -3.93424 -0.496126
1460 1 1.52206 -3.2172 -0.259589
1853 1 0.899873 -3.37627 -0.758367
2817 2 2.23543 -3.55402 -1.16494
2779 2 2.58874 -3.0326 -0.786984
1541 1 3.3582 -3.89373 -0.964532
2681 1 3.71812 -3.83843 -0.110551
163 1 4.07181 -3.29283 -0.735475
2879 2 5.11635 -3.669 -0.253369
2902 2 4.91175 -4.17538 -0.742679
213 1 5.75319 -3.50715 -1.16466
2560 1 6.77399 -3.89373 -1.03256
1450 1 6.47215 -3.27395 -0.652961
834 1 6.95452 -3.02531 -0.00078942
3077 2 -6.65549 -2.44942 -0.687261
3370 2 -6.30745 -2.19141 -0.116679
747 1 -5.63697 -2.7175 -1.20243
1336 1 -5.21141 -2.68882 -0.136027
255 1 -4.87296 -2.10354 -0.5916
689 1 -5.56819 -1.79847 -0.84963
3217 2 -3.78126 -2.76662 -0.0010141
2405 1 -4.24094 -2.04556 -1.03576
1798 1 -3.64199 -1.64528 -0.668199
2279 1 -3.36986 -2.47458 -1.12091
2118 1 -2.78927 -2.32205 -0.473435
2927 2 -2.05899 -1.8999 -1.18666
1209 1 -0.809669 -1.97998 -0.977366
11 1 -1.59748 -2.53472 -0.557178
63 1 -0.542362 -1.59307 -0.40448
3088 2 0.239189 -2.46662 -1.1484
3150 2 0.506376 -2.1567 -0.521496
1158 1 1.62419 -2.38471 -0.775386
1540 1 1.47 -1.61774 -0.766065
1678 1 1.04334 -1.80379 -1.4117
2431 1 1.90121 -2.4614 -0.0331912
1281 1 2.52105 -1.68469 -0.140957
742 1 2.4865 -2.08409 -1.02894
2771 2 3.09076 -2.78043 -0.0470875
1401 1 3.25895 -1.92176 -0.794961
2459 1 3.96792 -2.00772 -0.546294
27 1 3.56434 -2.7623 -1.2008
2386 1 5.56249 -2.18355 -0.111989
1174 1 5.62541 -2.74666 -0.879236
1189 1 4.71089 -2.10123 -0.020736
1261 1 4.66804 -2.66328 -0.660054
3080 2 5.26274 -1.65063 -1.08523
586 1 6.29828 -2.19844 -0.319899
2209 1 6.25345 -2.13022 -1.12339
3152 2 7.05539 -2.74981 -1.26775
3174 2 -6.6464 -0.184307 -1.22762
1698 1 -6.288 -0.941827 -0.357542
737 1 -6.52553 -1.36118 -1.16541
1681 1 -6.99004 -1.22691 -0.111615
1588 1 -5.05155 -0.46628 -0.325406
303 1 -4.904 -1.26076 -0.358511
2481 1 -5.56071 -0.919992 -0.754799
3536 2 -3.83093 -0.523604 -0.68258
2895 2 -4.20047 -0.847038 -1.25362
3125 2 -3.66738 -0.228146 -0.0095512
1458 1 -2.78679 -1.1223 -0.979808
532 1 -2.17697 -0.555219 -1.31404
2376 1 -2.9156 -1.04133 -0.192746
23 1 -2.93985 -0.0813233 -1.19411
2673 1 -2.43076 -0.363921 -0.313048
3545 2 -1.64594 -1.41089 -0.60584
865 1 -0.891492 -1.06188 -1.18572
1922 1 -0.993245 -0.300485 -1.14386
407 1 -1.71672 -0.0537261 -0.739072
3272 2 -1.53985 -0.964176 -0.00724915
2293 1 -0.326691 -0.389524 -0.477745
1598 1 -0.0961999 -1.25332 -0.8731
1187 1 0.602084 -0.587776 -0.0667048
1188 1 1.54045 -0.712096 -0.702998
3000 2 0.66541 -0.127997 -1.22169
519 1 1.76554 -0.101642 -1.17781
490 1 0.807346 -1.10593 -0.773768
3039 2 2.49089 -0.980073 -1.2981
3375 2 3.00869 -0.706119 -0.645523