ITEM: TIMESTEP
0
ITEM: NUMBER OF ATOMS
3594
ITEM: BOX BOUNDS pp pp pp
-7.0895032694363307e+00 7.0895032694363307e+00
-7.0895032694363307e+00 7.0895032694363307e+00
-7.0895032694363307e+00 7.0895032694363307e+00
ITEM: ATOMS id type x y z
2775 2 -6.51556 -6.15218 -5.89676
2986 2 -6.90036 -6.41733 -6.53135
527 1 -5.89396 -7.00194 -6.28701
609 1 -5.5565 -6.18662 -6.85859
1581 1 -5.06768 -6.12863 -5.98967
1514 1 -4.66268 -6.08031 -6.77294
2060 1 -3.72355 -6.29851 -6.50153
2323 1 -3.57512 -6.91582 -7.00805
1202 1 -1.93931 -6.8369 -6.17602
2911 2 -1.95946 -5.78166 -6.44314
2727 1 -2.84069 -6.81532 -6.2738
599 1 -3.0583 -5.96569 -5.99328
2098 1 -1.12372 -6.42269 -6.45506
448 1 -0.726028 -6.589 -5.71572
3141 2 -0.104159 -6.77312 -6.8372
2207 1 -0.515982 -5.74539 -5.78895
2819 2 0.224536 -6.09457 -6.36278
3455 2 0.766596 -5.74997 -5.86884
540 1 1.38042 -6.71476 -6.66423
724 1 1.81589 -6.11283 -6.20014
2087 1 2.78454 -6.172 -6.99621
1704 1 2.54154 -5.71836 -6.23462
2970 2 2.69468 -6.78383 -5.96892
3444 2 3.36152 -6.65037 -5.77084
60 1 3.30408 -5.83098 -6.38018
1264 1 4.15212 -6.10118 -6.38603
116 1 4.42308 -6.89952 -6.61337
671 1 3.58136 -6.58383 -7.05528
1669 1 4.52207 -6.59538 -5.73871
3303 2 5.11429 -5.81445 -6.76735
1830 1 5.22737 -7.00938 -6.6933
2021 1 5.50689 -6.46939 -5.71798
2162 1 6.38919 -6.71088 -5.95712
171 1 6.23347 -6.12372 -6.45258
1894 1 -6.3154 -5.62249 -6.97927
1090 1 -6.76163 -5.10815 -6.48149
51 1 -5.82897 -4.84894 -6.87361
321 1 -5.92969 -4.61117 -6.22717
1501 1 -5.52744 -5.47286 -6.41859
1965 1 -5.08041 -5.01543 -5.9697
2421 1 -4.23846 -5.58168 -6.04141
3566 2 -4.34123 -4.70709 -6.59048
2763 2 -3.78745 -4.36649 -6.11085
2156 1 -3.44965 -5.37981 -6.60324
2151 1 -2.51364 -4.95569 -5.77971
717 1 -2.90201 -4.89076 -6.55775
1900 1 -1.81923 -4.26808 -6.80892
2810 2 -1.53682 -5.25268 -6.14686
2519 1 -0.875516 -4.79013 -6.8235
1729 1 -0.446288 -5.52656 -6.53091
1660 1 -0.40512 -4.46006 -6.37941
1635 1 -0.135458 -4.92694 -5.69677
1594 1 0.524896 -5.35331 -7.04231
1694 1 0.483001 -4.76227 -6.37773
560 1 1.53494 -5.62483 -6.77414
603 1 1.18841 -4.86366 -6.70445
705 1 1.83241 -4.90964 -6.18229
3219 2 3.17882 -4.73768 -5.97708
3067 2 2.97591 -4.71279 -6.68758
2308 1 4.15252 -5.51269 -5.69903
133 1 4.04431 -5.3236 -6.64709
2709 1 4.43261 -4.76187 -5.94524
1228 1 3.96934 -4.6126 -7.06781
3363 2 5.34797 -5.3782 -6.22412
2715 1 4.7904 -4.33521 -6.46201
3437 2 5.63286 -5.00605 -5.73139
473 1 6.79299 -5.38291 -6.99073
1869 1 6.79893 -5.42778 -5.96496
190 1 6.43234 -4.70084 -6.35878
433 1 6.75641 -4.43254 -5.76843
2268 1 5.95329 -4.52674 -6.94224
3204 2 -6.61016 -3.66215 -6.55222
3589 2 -6.93214 -4.25317 -7.01803
3558 2 -6.11777 -3.40147 -6.0911
2003 1 -5.32486 -4.13102 -6.49882
1062 1 -4.88883 -4.06467 -5.72763
2034 1 -5.5508 -3.16846 -7.01838
129 1 -4.52937 -3.41045 -5.89787
1171 1 -4.93349 -3.36215 -6.4904
376 1 -4.38608 -3.67586 -6.95254
1819 1 -3.79499 -3.37872 -6.23871
2011 1 -3.29252 -3.06624 -5.69013
2660 1 -3.30474 -3.03699 -6.97239
1816 1 -2.58134 -4.14357 -6.34655
217 1 -3.15527 -4.12364 -7.08621
1821 1 -2.71142 -3.32065 -6.26037
2746 2 -1.95863 -3.28433 -7.01996
355 1 -1.53076 -3.81809 -6.152
214 1 -0.80641 -3.7499 -6.58418
409 1 -0.300133 -3.66739 -5.77187
538 1 -0.404254 -3.01165 -6.60042
3495 2 0.464886 -3.85543 -6.92077
786 1 0.263841 -2.98063 -5.84776
3427 2 0.972136 -3.59757 -6.28588
1546 1 1.70088 -3.1549 -7.03057
1349 1 2.18038 -4.0776 -6.29997
2042 1 2.70734 -3.56609 -5.88063
1794 1 2.30207 -3.77627 -7.06328
1489 1 3.1083 -3.47791 -6.69185
1567 1 2.27206 -3.03198 -6.29817
429 1 3.38199 -3.02384 -5.73886
339 1 4.10738 -3.80328 -6.68784
3471 2 3.6362 -4.19176 -5.75707
347 1 5.73781 -4.06564 -6.37555
327 1 4.56306 -3.35415 -6.07069
3305 2 5.36516 -2.98854 -6.54422
1474 1 6.07389 -3.66367 -5.74631
994 1 6.61456 -3.13918 -6.21071
1250 1 -6.15592 -2.45961 -6.36518
435 1 -6.7684 -2.09142 -6.07897
529 1 -6.66578 -2.76344 -6.86891
1419 1 -5.55075 -2.05852 -6.46806
384 1 -4.8364 -2.40143 -6.16603
1764 1 -4.88696 -1.59155 -6.72884
3330 2 -4.12371 -2.47983 -7.01122
3157 2 -3.75846 -2.19875 -6.21786
3222 2 -3.3557 -1.76372 -5.94308
543 1 -2.60624 -2.6118 -5.86351
1880 1 -2.1338 -1.96849 -6.13962
1902 1 -2.72664 -2.23837 -6.73845
3048 2 -1.65668 -2.79893 -6.59743
3460 2 -1.13409 -2.49198 -6.08298
2509 1 -1.42263 -1.52524 -6.58526
815 1 -0.415759 -2.07263 -6.74111
1289 1 0.451401 -2.34648 -6.24596
2210 1 0.132057 -1.44512 -6.07835
1591 1 1.08963 -2.64106 -6.81847
1746 1 1.43592 -1.98432 -5.78291
1680 1 1.84687 -2.39174 -6.3499
542 1 2.32411 -1.83273 -6.3354
2974 2 3.21252 -2.27734 -7.0021
2892 2 3.29793 -2.06995 -6.28123
684 1 4.17263 -2.82658 -6.77825
1740 1 4.71506 -2.03493 -6.08264
843 1 4.71142 -1.95627 -6.90642
3054 2 5.67923 -2.64378 -5.9767
187 1 5.45785 -1.83347 -6.63394
918 1 6.82112 -2.28951 -6.42911
1198 1 6.31089 -2.60125 -7.04887
1281 1 6.93786 -1.46316 -6.1598
2181 1 6.33648 -1.62703 -6.78023
1483 1 -7.05028 -0.387462 -6.30473
3147 2 -6.06076 -1.06244 -6.63083
3490 2 -5.73833 -0.681086 -6.00558
224 1 -4.85203 -0.751182 -6.86911
151 1 -4.45845 -1.30754 -6.10403
1533 1 -4.05046 -0.747592 -6.34749
2631 1 -3.28234 -0.728719 -6.79575
1785 1 -3.30634 -0.562215 -5.97676
2371 1 -2.21952 -0.997786 -6.06578
74 1 -2.73218 -1.34896 -6.59811
2701 1 -2.51881 -0.224665 -6.45552
3014 2 -1.20417 -0.400743 -6.52594
2056 1 -0.626796 -1.24073 -5.80071
2996 2 -0.598766 -0.24258 -6.13773
1002 1 -0.426768 -1.19355 -6.74462
3056 2 0.544948 -1.406 -7.06296
743 1 0.455984 -0.406303 -6.17606
1080 1 1.61843 -0.251324 -6.97535
3430 2 1.54875 -0.82716 -6.09469
3593 2 1.12341 -1.40233 -6.67812
1793 1 2.28129 -0.0859694 -6.74848
2564 1 2.46219 -0.985673 -6.76648
178 1 2.70877 -0.808104 -5.88749
802 1 3.30692 -0.918566 -6.85342
910 1 4.07495 -1.28687 -6.88526
1255 1 3.58603 -0.589123 -6.17514
2363 1 4.67931 -0.991412 -6.21048
2303 1 4.70226 -0.109662 -6.32606
1106 1 5.56461 -0.472159 -5.75094
585 1 5.36938 -1.40248 -5.81275
2876 2 5.50632 -0.639618 -6.98701
99 1 6.05031 -1.00183 -6.14314
2945 2 6.02671 -0.0411244 -6.68262
584 1 6.77413 -0.778085 -6.94213
2903 2 -6.10832 -5.67715 -5.42407
2126 1 -6.66192 -6.21508 -4.5282
1086 1 -6.70147 -7.05303 -4.47074
183 1 -6.04676 -6.89411 -4.97049
1795 1 -5.42474 -6.81463 -5.53533
2179 1 -5.78774 -6.33584 -4.44095
392 1 -5.08175 -6.43441 -4.74221
2838 2 -4.21537 -6.60597 -5.53473
3323 2 -3.62456 -6.55808 -5.07561
134 1 -4.28285 -5.88584 -4.3314
615 1 -4.50678 -6.9574 -4.53208
3311 2 -3.24204 -6.24346 -4.57806
62 1 -2.60722 -6.27601 -5.53001
1406 1 -2.20549 -6.72914 -5.09282
465 1 -2.20056 -6.84865 -4.37642
1385 1 -1.55741 -6.26368 -5.35732
420 1 -1.9024 -5.70632 -4.78528
3364 2 -1.12111 -6.99469 -4.74059
3206 2 -0.695598 -6.58313 -4.26347
1792 1 -0.00942446 -6.0243 -5.02011
2040 1 0.590352 -6.67548 -5.34037
2500 1 1.57717 -6.93516 -5.66383
25 1 0.689951 -6.30986 -4.48667
2684 1 1.54812 -6.69233 -4.81592
1307 1 2.74696 -6.29881 -4.443
541 1 2.28206 -6.16233 -5.22304
1492 1 2.70415 -7.08936 -4.82482
3223 2 3.96494 -6.33984 -4.46282
3034 2 3.73322 -6.25454 -5.22953
612 1 5.00938 -5.86849 -5.3109
1481 1 5.02546 -6.47862 -4.79069
1128 1 6.54199 -5.97912 -5.47673
2711 1 5.83445 -6.05509 -5.17372
3537 2 6.14494 -6.65205 -4.33474
312 1 6.79475 -5.67716 -4.69802
106 1 6.97554 -6.65929 -5.1339
1910 1 -6.58454 -4.48819 -5.67114
1997 1 -6.73664 -5.24518 -4.44119
1766 1 -6.43588 -4.42747 -4.9658
1450 1 -5.64949 -4.29827 -5.36287
838 1 -4.72146 -4.73664 -5.33975
3254 2 -5.63376 -5.38009 -4.94646
2450 1 -4.58971 -5.58211 -5.29429
3262 2 -5.18469 -4.95522 -4.33228
2729 1 -3.61745 -5.37304 -5.39689
778 1 -4.09685 -5.06707 -4.84667
2173 1 -3.99898 -4.30469 -4.55545
3576 2 -3.39246 -4.40423 -5.59733
1859 1 -3.29245 -4.73355 -4.52964
1467 1 -2.80494 -5.33728 -5.18609
2222 1 -2.17961 -4.81842 -4.85797
553 1 -2.07824 -4.33747 -4.37733
2782 2 -1.27711 -4.76511 -5.66726
2237 1 -1.08619 -5.60397 -5.06134
3164 2 -0.966095 -4.34719 -4.94031
2287 1 -0.512714 -5.46335 -4.43288
3379 2 -0.33957 -4.35008 -4.43301
175 1 -0.0138462 -5.18039 -4.93953
2553 1 1.23734 -4.47485 -5.57326
3513 2 1.24303 -5.51061 -5.21667
2904 2 1.66565 -5.2917 -4.64458
1756 1 0.697157 -4.62889 -4.80291
991 1 2.57143 -5.44636 -5.42198
1135 1 2.13811 -4.6171 -5.48016
1308 1 3.10371 -5.60188 -4.84943
1846 1 2.97911 -4.64804 -4.59838
230 1 4.45118 -5.41207 -5.0152
2249 1 4.05216 -4.80639 -4.41137
507 1 3.67048 -5.13442 -5.2015
2271 1 5.13782 -5.61742 -4.37299
1417 1 4.70184 -4.55995 -4.91175
1145 1 5.15499 -4.86566 -4.37478
645 1 7.06833 -5.11306 -5.34265
2861 2 5.98563 -5.01347 -5.06665
3503 2 6.34813 -4.48767 -4.75163
2428 1 -5.8526 -3.76149 -4.38245
1175 1 -7.01784 -2.86907 -5.61082
1372 1 -6.47638 -3.4151 -5.01286
638 1 -4.81283 -3.8155 -4.84731
3443 2 -5.57755 -3.21157 -5.57441
3132 2 -5.30063 -2.86353 -5.00797
260 1 -4.1092 -3.48348 -5.15916
2236 1 -2.00153 -4.11792 -5.58821
3451 2 -2.99644 -3.94765 -5.08213
1380 1 -2.06897 -3.23377 -5.65552
3292 2 -2.63469 -3.24858 -4.55104
2569 1 -1.1737 -3.43489 -5.57513
114 1 -1.60654 -3.5407 -4.66589
2108 1 -0.856011 -3.39517 -4.57953
1351 1 -0.0165555 -3.12725 -5.02682
59 1 0.256891 -4.24206 -5.41193
921 1 0.632958 -3.59498 -5.04431
2730 1 1.78706 -4.12422 -4.76355
3058 2 1.50763 -3.35099 -5.66075
1874 1 0.958543 -3.39125 -4.35288
2898 2 1.81474 -2.92132 -5.08808
286 1 2.33488 -3.70624 -4.47439
2159 1 2.72415 -4.1054 -5.08846
2688 1 2.927 -3.28182 -5.03067
2786 2 3.91543 -3.93802 -5.10825
2804 2 4.18802 -3.41138 -4.58356
1749 1 5.00036 -3.86114 -5.57795
2513 1 5.32216 -3.87749 -4.81115
690 1 5.10236 -3.05606 -5.18372
1356 1 7.00072 -3.72906 -5.46515
3285 2 6.85169 -4.07328 -4.43149
594 1 5.966 -3.35463 -4.93172
33 1 6.74648 -3.17007 -4.89139
889 1 -6.42216 -2.32665 -5.35656
640 1 -6.75268 -2.74126 -4.58567
2168 1 -5.89736 -2.12078 -4.42384
2897 2 -6.90417 -1.64818 -4.7416
1876 1 -5.63582 -1.94782 -5.62689
2539 1 -4.76804 -1.66056 -5.37072
2797 2 -4.99325 -2.32924 -4.29088
315 1 -5.69011 -1.50091 -4.82295
1975 1 -4.30326 -2.68744 -5.47183
2410 1 -3.67475 -2.74579 -4.78985
2031 1 -3.82308 -1.9247 -4.95068
1416 1 -1.9886 -2.63349 -5.18116
1759 1 -2.06944 -2.01508 -4.51662
156 1 -2.96938 -2.41921 -5.11391
2632 1 -2.97254 -1.97179 -4.35976
990 1 -1.86818 -1.99869 -5.41361
3224 2 -0.747399 -2.4574 -5.52865
270 1 -1.30232 -2.65344 -4.63399
1971 1 -1.23751 -1.68375 -4.5583
3211 2 -0.190773 -1.98082 -5.00234
210 1 0.605443 -2.72022 -4.71755
3090 2 0.0154207 -1.44407 -4.4974
1976 1 0.843419 -2.43996 -5.36276
2071 1 0.812495 -1.47694 -5.56135
3020 2 1.82682 -2.22241 -4.67272
703 1 1.21712 -1.48347 -4.77296
2340 1 2.61361 -2.51252 -5.57894
2724 1 2.25299 -1.63675 -5.50071
72 1 3.10579 -2.01587 -4.93271
2842 2 2.42519 -2.66118 -4.28812
574 1 4.22133 -2.6825 -5.58524
3380 2 3.77912 -1.52914 -5.65753
2614 1 3.73068 -2.59067 -5.03023
1568 1 3.7618 -1.83865 -4.46618
1153 1 4.58924 -2.10901 -4.37819
1952 1 4.91717 -2.15105 -5.10861
1370 1 5.79143 -2.68098 -4.61196
463 1 5.29396 -1.75258 -4.69298
3112 2 6.10269 -2.25332 -5.48339
3414 2 6.61547 -1.71582 -5.07234
709 1 -6.51235 -1.31387 -5.61513
2259 1 -6.3552 -0.221114 -5.3181
1865 1 -7.05564 -0.371818 -4.7939
2007 1 -5.97361 -0.508147 -4.64608
3094 2 -5.08221 -0.54662 -5.60296
3003 2 -4.98162 -0.322861 -4.85536
6 1 -4.92284 -1.36005 -4.52095
2397 1 -4.01892 -0.829374 -5.53381
626 1 -4.0888 -1.23486 -4.77319
2869 2 -4.36322 -0.0179143 -4.72224
451 1 -3.48511 -0.550705 -4.64974
2915 2 -2.92928 -1.31515 -5.34544
1931 1 -2.72777 -0.182114 -5.40949
3259 2 -2.56701 -1.01391 -4.75256
3282 2 -2.04332 -0.64138 -4.48473
1665 1 -1.4516 -1.25233 -5.558
861 1 -1.73888 -0.389713 -5.42311
2457 1 -1.0145 -1.00594 -4.8743
866 1 -1.08694 -0.194496 -5.07929
1017 1 -0.400085 -0.616961 -5.17882
490 1 -0.00659361 -0.359562 -4.34684
2487 1 0.445024 -0.716563 -5.23504
3402 2 1.92578 -0.484979 -5.35516
345 1 0.840234 -0.149691 -4.46811
2009 1 1.29071 -0.777031 -4.57269
2710 1 3.0295 -0.842168 -4.95242
2231 1 2.31181 -1.14401 -4.66423
1999 1 3.46222 -1.08431 -4.29103
720 1 4.00767 -0.081008 -5.5188
3166 2 4.30146 -1.14399 -5.16143
2402 1 3.59415 -0.266581 -4.79644
1537 1 4.81206 -0.0422281 -5.48191
3353 2 4.71687 -0.784048 -4.68147
2873 2 5.24943 -0.385758 -4.38271
788 1 6.70779 -0.743397 -5.66245
336 1 5.93179 -1.07577 -5.10929
829 1 6.4525 -0.626671 -4.29045
1429 1 6.1137 -0.23235 -5.02455
588 1 -6.33681 -6.48838 -3.73647
2759 2 -7.07552 -6.02139 -3.18256
1256 1 -6.09108 -6.56184 -2.93335
479 1 -4.92171 -6.03717 -4.10329
791 1 -5.40106 -5.9486 -3.47042
2958 2 -5.10805 -6.96516 -3.36386
310 1 -4.33764 -5.74827 -3.61362
787 1 -4.02449 -6.65194 -3.80939
3545 2 -4.48202 -6.51186 -3.03321
2102 1 -3.22853 -6.54955 -3.11298
410 1 -3.4601 -5.88126 -3.48351
2841 2 -2.78699 -5.77355 -4.19237
2312 1 -2.86551 -6.78192 -3.74412
1521 1 -2.13261 -6.3965 -3.53802
1083 1 -1.47486 -6.105 -4.02175
362 1 -1.21116 -6.91649 -3.31868
3390 2 -0.0878846 -6.12933 -3.62934
3198 2 0.392559 -6.05789 -3.01544
2408 1 0.988547 -6.81185 -3.92592
2141 1 1.22633 -5.9342 -3.79308
1653 1 1.79582 -6.29442 -4.17301
2232 1 1.18439 -6.72752 -3.06896
1630 1 1.80796 -5.98643 -3.09252
2346 1 2.86774 -5.9072 -3.7306
3404 2 2.33156 -6.96215 -3.57469
1529 1 3.26026 -7.0433 -4.00479
1522 1 3.42792 -6.33973 -3.31326
3407 2 4.14034 -5.77017 -4.01905
909 1 4.32266 -6.88351 -3.75451
502 1 3.87246 -6.87655 -2.86285
2265 1 5.14187 -6.47572 -3.93192
559 1 4.69038 -6.30305 -2.96766
1560 1 5.72838 -5.79128 -3.43154
2703 1 5.51304 -6.73107 -3.31657
2895 2 6.57851 -6.36388 -3.65267
624 1 -6.10375 -5.50123 -3.90866
2047 1 -6.19587 -4.4259 -4.228
2203 1 -6.77195 -4.7731 -3.55364
2662 1 -5.833 -4.67867 -3.44839
3470 2 -4.77209 -4.5381 -3.72393
1913 1 -5.67354 -5.32829 -3.12136
161 1 -4.75954 -5.15504 -2.93388
398 1 -3.69049 -4.99697 -3.84017
1445 1 -3.59869 -5.13619 -3.04888
3543 2 -2.41698 -5.205 -3.66593
2905 2 -1.943 -5.09057 -3.03252
2615 1 -1.40499 -4.42065 -3.91812
569 1 -1.43868 -5.28022 -4.23343
1028 1 -1.19355 -5.66057 -3.45228
1178 1 -0.605096 -5.04397 -3.64638
754 1 -0.148751 -4.96612 -2.84559
522 1 0.58188 -5.3881 -4.16717
2582 1 0.376295 -4.77882 -3.52074
1974 1 1.2312 -4.25818 -4.16658
1578 1 1.15667 -5.11706 -3.58843
811 1 1.18657 -4.25826 -3.32191
974 1 1.74409 -5.22176 -2.89202
3528 2 2.18974 -5.00677 -4.06506
576 1 2.63377 -5.46151 -3.04178
3317 2 2.4296 -4.477 -3.34567
2153 1 3.25697 -5.31636 -4.03998
1170 1 3.54193 -4.85594 -3.40382
1386 1 3.60554 -4.28332 -3.93961
2520 1 4.54547 -4.2998 -3.99368
3175 2 4.5884 -5.36294 -3.5059
3453 2 5.18751 -4.89384 -2.96974
494 1 5.88871 -5.50891 -4.13436
2035 1 6.10318 -4.6613 -3.59383
751 1 6.76134 -5.21864 -3.83307
269 1 6.77932 -4.35953 -3.07681
3436 2 -6.88916 -3.56636 -3.72645
206 1 -6.11611 -2.95265 -4.2323
3454 2 -6.43918 -3.3951 -2.97581
1747 1 -5.59864 -4.04585 -3.47205
747 1 -5.62593 -3.21586 -3.81405
873 1 -4.62109 -3.44729 -3.89881
2699 1 -5.02017 -3.35556 -3.1554
2452 1 -3.78887 -3.70896 -4.14599
3327 2 -4.2427 -4.2298 -3.12803
1070 1 -4.00765 -3.12895 -3.14847
1184 1 -3.46348 -3.02775 -3.94143
2258 1 -3.14029 -4.21001 -3.74123
2655 1 -2.85133 -4.25306 -2.85637
2282 1 -2.30213 -4.06598 -3.51709
2254 1 -2.6025 -3.13928 -2.98456
1013 1 -3.0602 -3.50828 -3.37372
54 1 -1.51891 -3.64773 -3.61964
1925 1 -0.807844 -4.06406 -3.44634
895 1 -0.976588 -3.13973 -3.58244
2629 1 -0.297379 -2.84494 -4.10832
3148 2 0.135273 -3.91481 -4.09377
3392 2 0.383591 -3.40499 -3.34202
1295 1 1.80162 -3.59678 -3.81981
750 1 1.14946 -2.9617 -3.77228
335 1 1.74476 -3.44125 -3.12016
199 1 3.00494 -3.72385 -4.0366
3087 2 2.80885 -4.04668 -2.9364
1592 1 2.84321 -3.13429 -3.51883
1354 1 3.37119 -2.98719 -4.17746
714 1 4.48284 -4.02329 -3.17997
602 1 3.70407 -3.53561 -3.63823
834 1 4.32364 -3.20213 -3.04708
807 1 5.46431 -4.0456 -4.02347
532 1 5.23844 -3.68788 -3.05823
3463 2 4.79285 -3.18761 -4.22815
2565 1 5.98315 -3.80737 -3.19302
621 1 6.0458 -3.34871 -3.97831
152 1 6.64336 -3.06947 -3.08706
1868 1 -6.29911 -2.33652 -3.64934
2577 1 -7.08475 -2.35843 -3.47281
2137 1 -5.66007 -2.11452 -3.18821
300 1 -5.02456 -2.54813 -3.03235
2490 1 -5.18416 -1.51451 -3.31822
3140 2 -4.27717 -2.31605 -3.89842
2862 2 -4.02463 -1.84081 -3.38507
3368 2 -2.03216 -2.81478 -3.81298
2211 1 -3.16922 -2.40349 -3.61984
1773 1 -2.66554 -1.82981 -3.3172
735 1 -0.814987 -2.33197 -3.99338
2825 2 -1.72988 -2.34489 -3.32965
2109 1 -0.371748 -2.63702 -3.12018
548 1 -0.455776 -1.62214 -3.45119
2623 1 0.230561 -2.30639 -3.80127
2239 1 0.409756 -1.96624 -3.01302
2680 1 1.5532 -1.86249 -3.74072
1761 1 0.945245 -2.34336 -4.17425
2422 1 1.64737 -2.63085 -3.47331
3120 2 2.68117 -2.01089 -3.87927
1009 1 2.22668 -2.27089 -2.88889
3387 2 3.03055 -1.57483 -3.38432
212 1 3.97814 -2.21738 -3.87649
2219 1 3.6379 -2.75942 -3.18162
824 1 4.31742 -1.91073 -3.25123
2899 2 5.11763 -2.78348 -3.67848
275 1 4.83338 -1.45484 -3.91278
3065 2 5.54043 -2.39033 -3.35526
1323 1 6.08716 -1.8084 -4.24237
2502 1 6.61262 -2.60312 -4.15252
3275 2 5.94322 -1.97496 -2.89072
1224 1 6.72868 -1.6203 -3.53704
1572 1 -6.53605 -0.00807933 -4.16653
2959 2 -6.51738 -1.33294 -4.08248
3412 2 -6.36915 -1.00995 -3.54708
2857 2 -6.12635 -0.474219 -3.06819
438 1 -4.96878 -0.110819 -3.72437
878 1 -5.26928 -0.84566 -3.96271
368 1 -4.73192 -0.934208 -2.92058
2262 1 -4.3561 -0.917077 -3.98961
1108 1 -3.73339 -0.381091 -3.72525
299 1 -4.43704 -0.203658 -3.20974
31 1 -3.385 -1.27851 -4.07512
3560 2 -3.51214 -1.26872 -2.97036
344 1 -3.40132 -0.0181223 -2.93207
1405 1 -3.02347 -0.666888 -3.72355
209 1 -2.2546 -1.18605 -3.54799
801 1 -2.57336 -0.498882 -3.04441
3361 2 -1.60364 -0.0633899 -4.10754
2453 1 -0.689648 -0.780977 -3.97125
1841 1 -1.28149 -1.32072 -3.81713
1498 1 -1.65978 -1.04453 -3.07264
1951 1 -0.931608 -0.761011 -2.90849
2306 1 -0.135968 -0.231689 -3.57222
2398 1 -0.185919 -0.868687 -3.16963
3165 2 0.506781 -1.3367 -3.92491
2607 1 1.86005 -0.196371 -3.95122
3569 2 0.99067 -0.902127 -3.51538
3493 2 1.09724 -0.49441 -2.95008
1156 1 2.99364 -0.6551 -3.86462
2589 1 2.05128 -0.998993 -3.86481
1765 1 2.42502 -0.388104 -3.4494
2367 1 1.99021 -1.3066 -3.09403
1908 1 3.24712 -0.130421 -3.03288
1316 1 4.14294 -1.14832 -3.74269
1133 1 3.89225 -0.395779 -3.81896
2767 2 5.67562 -0.0861018 -3.74028
1274 1 5.74817 -1.28756 -3.87363
912 1 5.14721 -1.04394 -3.18214
439 1 4.69017 -0.492113 -3.42409
1723 1 5.96168 -0.953111 -2.97077
1248 1 6.98292 -1.21267 -2.91229
762 1 6.81969 -0.562564 -3.50901
2132 1 -6.22526 -6.85565 -2.19752
2187 1 -6.94364 -6.92874 -2.75177
1882 1 -6.74705 -6.51437 -1.83459
470 1 -5.44761 -6.50541 -2.14946
763 1 -5.10882 -5.75929 -2.4412
1191 1 -4.85277 -6.40927 -1.51331
3011 2 -4.11522 -6.29286 -2.41017
3145 2 -3.43307 -5.97564 -1.69905
2320 1 -2.24955 -6.26266 -2.77644
2209 1 -3.116 -6.86435 -2.15789
1923 1 -2.12756 -6.20817 -1.91484
1979 1 -2.99328 -5.87227 -2.79122
2601 1 -2.42715 -6.80002 -1.55437
2438 1 -0.657597 -6.52049 -2.61556
2217 1 -1.37981 -6.24612 -2.73457
2737 2 -1.13567 -6.69094 -1.55599
872 1 -0.089493 -6.53213 -2.17235
952 1 -0.624136 -5.69366 -2.76735
510 1 0.41695 -6.1407 -1.61248
812 1 1.63175 -6.08305 -2.1625
259 1 0.923339 -6.71029 -2.08887
3012 2 2.64018 -6.64284 -2.71605
3086 2 2.92257 -6.22868 -2.09327
1468 1 1.96077 -6.89635 -1.92244
2886 2 3.40179 -5.68948 -1.65286
2138 1 3.88897 -6.03751 -2.69157
1183 1 4.19436 -6.37385 -1.96732
1441 1 5.35489 -5.79388 -2.41902
3288 2 5.39761 -7.00535 -1.96634
2676 1 4.78298 -6.0266 -1.56578
455 1 6.72077 -6.0358 -1.8836
255 1 6.14134 -6.19526 -2.55902
40 1 6.81738 -6.88599 -2.07691
3423 2 -6.02023 -5.45808 -2.00119
2807 2 -6.72028 -5.56827 -2.56554
964 1 -6.17155 -4.62451 -2.67483
1073 1 -5.26502 -4.49304 -2.51443
1261 1 -4.8433 -5.55457 -1.58122
2929 2 -5.67933 -4.95983 -1.65354
1110 1 -4.4916 -4.40858 -1.90915
1240 1 -3.7112 -4.92528 -1.89427
2504 1 -4.44559 -5.18105 -2.3301
1220 1 -2.56452 -5.41558 -2.08531
2272 1 -3.03987 -4.97721 -2.50374
2235 1 -2.84575 -4.52573 -1.56048
1818 1 -0.95354 -5.63313 -2.0166
2059 1 -1.71387 -5.53192 -1.98489
3370 2 -1.42011 -4.63204 -2.68829
2846 2 -1.02246 -4.47624 -2.11403
1357 1 -1.9285 -4.91635 -1.48725
1513 1 -0.0308748 -4.81035 -1.88858
2448 1 -0.148251 -5.50623 -1.66147
3549 2 0.744785 -5.50625 -2.58191
176 1 0.758995 -4.35295 -2.50718
667 1 1.59935 -4.41045 -2.55269
3153 2 1.0656 -5.07655 -1.91453
1615 1 2.21307 -5.41624 -2.22764
2343 1 2.48948 -4.6823 -1.95098
1099 1 2.17466 -5.48336 -1.43984
2099 1 3.33813 -5.3196 -2.71084
1479 1 3.30132 -4.75474 -2.11505
2525 1 4.38855 -5.17967 -2.27224
937 1 3.98583 -4.58981 -2.82911
1854 1 4.168 -4.46197 -1.98402
1855 1 5.23718 -5.30018 -1.7857
2765 2 5.74646 -4.5372 -2.26378
2600 1 4.92861 -4.55498 -1.54459
1166 1 6.28311 -5.41113 -2.83389
1962 1 6.81325 -4.73054 -2.41778
1719 1 6.97882 -5.2305 -1.59597
162 1 6.14862 -5.21212 -1.71684
1786 1 -6.08813 -4.08441 -1.8767
82 1 -6.78933 -4.2006 -1.81268
3261 2 -6.01854 -3.06116 -2.4749
2644 1 -7.04484 -2.96175 -1.96977
1049 1 -6.28589 -3.4056 -1.47139
154 1 -5.26925 -3.65638 -2.54646
730 1 -4.58376 -3.64345 -1.89823
2330 1 -4.56708 -3.04876 -2.54569
1209 1 -5.22132 -3.4476 -1.48411
3340 2 -3.74178 -3.94073 -2.52443
1084 1 -4.16726 -2.91029 -1.70991
2750 2 -3.24912 -3.45612 -2.08985
880 1 -2.25058 -4.19562 -2.16192
2790 2 -0.876695 -3.89543 -1.68409
128 1 -1.82379 -3.40897 -2.75614
1411 1 -0.744028 -3.46288 -2.78463
1050 1 -1.08295 -2.8641 -1.99551
1932 1 -1.89881 -3.47006 -1.62758
1455 1 -0.164919 -4.14906 -2.71049
1713 1 -0.236411 -3.03305 -2.09312
804 1 0.391389 -3.86259 -1.94869
2298 1 0.40644 -3.07255 -1.65244
1618 1 1.6403 -3.58709 -2.21379
3485 2 0.754688 -3.04535 -2.7693
1422 1 1.06092 -3.53187 -1.5474
19 1 2.29302 -3.95625 -2.09843
1085 1 2.99395 -3.94903 -1.48796
2608 1 2.36448 -3.10585 -2.70446
222 1 2.59031 -3.11628 -1.70429
3144 2 3.40763 -3.69395 -2.64817
2973 2 3.69816 -3.50556 -2.03483
3530 2 4.15319 -3.02103 -1.79216
1378 1 4.78338 -3.87525 -2.32549
1177 1 4.71611 -3.81622 -1.46831
707 1 5.23433 -3.11877 -2.18524
1539 1 7.03967 -3.81215 -2.35583
3367 2 6.1217 -4.06182 -1.71691
482 1 5.96376 -3.20684 -2.5226
932 1 -6.56516 -1.80291 -2.71496
75 1 -7.03205 -2.38928 -2.60996
2 1 -6.43638 -1.73768 -1.87878
2787 2 -5.63884 -2.55046 -2.00513
1201 1 -4.76136 -1.92094 -2.59659
679 1 -5.75674 -1.45854 -2.56262
3246 2 -5.14647 -2.31507 -1.54358
1715 1 -4.14618 -1.77311 -1.9723
2224 1 -3.89581 -2.44711 -2.30787
1098 1 -3.33252 -2.5988 -2.82883
980 1 -2.2783 -2.70028 -2.2108
397 1 -2.53228 -2.05249 -2.54768
2379 1 -3.14225 -1.91612 -1.87938
1565 1 -2.25599 -1.62706 -1.55152
3301 2 -1.19375 -2.1313 -2.80405
281 1 -1.66992 -2.16796 -1.80881
3295 2 -0.924828 -1.52462 -2.32292
855 1 -0.180016 -2.32997 -2.28062
678 1 0.446035 -2.11495 -1.81372
3561 2 1.35745 -2.53248 -2.14721
109 1 1.24613 -1.60966 -2.70286
3462 2 1.92149 -2.16723 -1.56861
938 1 2.61282 -1.78488 -2.24746
1199 1 3.01452 -2.70278 -2.58036
296 1 2.98819 -2.41045 -1.91598
761 1 3.93611 -2.23509 -2.45734
1774 1 3.62354 -1.8248 -1.73694
2686 1 4.67189 -2.66582 -2.6682
1197 1 5.57632 -2.4367 -1.83502
1730 1 5.06313 -1.64972 -2.63289
1587 1 4.56994 -1.74751 -1.97552
3304 2 6.30445 -1.90264 -2.20226
2177 1 6.282 -2.80838 -1.83137
3565 2 6.73489 -1.45919 -1.89748
1947 1 -6.78931 -0.0582244 -1.96062
867 1 -6.69818 -0.914833 -2.18106
105 1 -6.16336 -0.535016 -1.49772
1189 1 -5.81943 -1.28341 -1.69367
3459 2 -5.62018 -0.474504 -2.57949
3201 2 -5.15223 -0.192978 -2.13958
1442 1 -4.72566 -1.17505 -2.19617
2433 1 -5.06507 -1.10199 -1.49506
2025 1 -4.22841 -0.532884 -2.05933
3520 2 -3.31103 -1.01707 -2.36759
3220 2 -2.81901 -0.62959 -1.93496
1614 1 -2.24296 -1.2677 -2.56815
2927 2 -2.29988 -0.178782 -1.55826
2037 1 -1.83511 -0.109102 -2.57474
634 1 -1.54572 -0.801817 -2.17465
1864 1 -1.16015 -0.218102 -1.93531
1579 1 -1.69747 -1.15493 -1.44963
1014 1 -0.323114 -0.487613 -2.44493
2920 2 -0.410313 -1.31778 -1.59288
1341 1 0.464824 -0.590926 -2.26837
1966 1 0.279564 -1.35573 -2.41557
915 1 0.827495 -1.36944 -1.95524
3162 2 1.66843 -0.0572248 -2.64945
1010 1 1.34738 -0.294452 -1.60734
673 1 1.67938 -0.986907 -1.64327
426 1 2.66178 -0.402405 -2.57509
795 1 2.1455 -1.17503 -2.2794
2514 1 3.01422 -0.903326 -1.72906
3351 2 3.39326 -1.36038 -2.83157
1435 1 3.39532 -0.267113 -1.51983
2805 2 4.33083 -0.622399 -1.98016
2919 2 3.9865 -0.926647 -2.53415
860 1 5.29641 -0.505151 -2.57709
239 1 5.37578 -1.12433 -1.87498
2084 1 6.79251 -0.471949 -2.51703
593 1 5.99427 -0.646129 -2.12691
1995 1 6.45967 -0.0699946 -1.75652
2332 1 -6.38926 -6.70349 -0.256271
1655 1 -6.00783 -6.00363 -0.432439
1559 1 -6.59638 -6.02072 -1.26018
868 1 -6.69752 -6.72274 -1.03297
3266 2 -5.60089 -7.00435 -0.920848
975 1 -5.54738 -6.08486 -1.31926
2849 2 -5.06426 -6.66469 -0.32939
488 1 -4.28045 -5.92893 -0.944388
2597 1 -4.18873 -6.83057 -1.32273
2050 1 -3.63862 -6.40422 -0.350669
1512 1 -3.34553 -7.00183 -1.24701
22 1 -2.85958 -6.60795 -0.646087
395 1 -2.13714 -6.5399 -0.277142
1619 1 -1.89396 -5.94707 -0.901108
3552 2 -0.755864 -6.2835 -1.08012
2429 1 -1.70278 -5.76411 -0.139273
3218 2 -0.308924 -5.96206 -0.588189
1907 1 0.133677 -6.94826 -1.16415
686 1 0.685771 -6.39496 -0.727767
2574 1 1.34051 -6.16563 -1.32387
2735 2 1.74352 -6.8188 -0.580503
2708 1 1.11955 -5.8195 -0.18212
306 1 2.53322 -6.28803 -1.22074
3395 2 2.07959 -6.36404 -0.0111635
1359 1 2.64224 -7.08918 -1.04447
1243 1 3.05362 -6.92349 -0.340707
1418 1 3.27604 -6.2592 -0.596951
745 1 4.42952 -6.60085 -1.19238
279 1 3.63389 -6.78959 -1.40399
1519 1 4.08001 -6.37056 -0.467251
2152 1 5.13291 -7.04836 -0.785972
104 1 4.97923 -6.15868 -0.43731
2128 1 5.69948 -6.74216 -0.117067
2135 1 6.88551 -6.77879 -0.457452
3424 2 6.34149 -5.96945 -0.980201
2744 2 5.83813 -6.5269 -1.39008
1710 1 -6.88073 -4.75282 -1.05904
2689 1 -6.35681 -5.31658 -0.82638
440 1 -5.85737 -5.1034 -0.225067
2170 1 -5.12645 -5.53834 -0.727394
3401 2 -5.50113 -4.413 -1.02783
1620 1 -4.48361 -5.21003 -0.23773
711 1 -4.22374 -5.07661 -1.10927
2196 1 -3.71511 -4.51615 -0.13148
2142 1 -3.64327 -4.44828 -1.09567
3432 2 -3.04439 -5.5654 -1.12752
3068 2 -2.89612 -5.09907 -0.561753
2778 2 -2.41706 -4.56855 -0.227352
313 1 -1.12577 -5.33602 -1.26282
32 1 -0.721335 -4.83601 -0.722422
596 1 -1.48409 -4.97219 -0.585863
539 1 -0.187427 -4.40062 -0.196694
628 1 0.179262 -4.99263 -0.989712
1294 1 1.70089 -5.5489 -0.739647
2697 1 0.694464 -5.56625 -1.06016
2712 1 0.730125 -4.44826 -0.490756
3139 2 1.47359 -4.57722 -1.24421
805 1 1.56431 -4.9577 -0.0767787
996 1 2.46536 -5.55583 -0.696181
197 1 2.85778 -4.84489 -1.01138
2048 1 3.49741 -5.5915 -0.196003
2136 1 3.53661 -4.3855 -1.02433
3377 2 4.03658 -5.38962 -1.28013
2943 2 4.37036 -5.0421 -0.661949
2722 1 5.32446 -5.56679 -0.807034
3170 2 4.82214 -4.62862 -0.134047
316 1 5.56768 -4.86758 -1.0859
3101 2 6.66836 -5.62628 -0.343783
2480 1 6.02078 -4.42289 -0.370322
537 1 6.38084 -4.78914 -1.00856
712 1 5.87526 -5.13303 -0.0483062
2576 1 6.81275 -4.3997 -0.231518
2451 1 -6.44211 -4.21891 -0.698976
3456 2 -6.71686 -2.90231 -0.239217
2251 1 -5.86776 -3.10763 -0.846533
3197 2 -7.05907 -3.34455 -0.779472
2784 2 -4.88722 -4.10893 -0.590823
800 1 -5.78619 -3.52195 -0.0554834
1333 1 -4.8858 -3.04617 -0.725275
1249 1 -4.01798 -3.67075 -1.3451
2998 2 -4.43535 -3.88667 -0.00773097
1544 1 -3.92133 -2.9127 -0.809581
20 1 -3.49807 -3.72936 -0.606498
1077 1 -2.68128 -3.91464 -1.09821
2757 2 -2.97687 -2.92846 -1.34464
149 1 -2.83389 -3.3041 -0.276307
2682 1 -2.07495 -3.46399 -0.534983
1938 1 -1.84379 -4.00427 -1.0048
1132 1 -1.13215 -3.9304 -0.459228
2482 1 -1.42295 -3.00584 -0.955025
1152 1 -1.09986 -3.23822 -0.10876
3189 2 -0.3624 -3.62697 -1.05333
3055 2 -0.098823 -3.05605 -0.547741
66 1 0.407942 -4.2426 -1.32226
505 1 0.90644 -3.5823 -0.444309
1155 1 1.10219 -3.06172 -0.894992
2144 1 1.56563 -3.21482 -0.145149
3439 2 2.12887 -4.10866 -0.883703
2852 2 2.53816 -3.79841 -0.412616
1924 1 3.10105 -2.89118 -1.16656
153 1 2.05598 -3.04352 -1.02706
1358 1 4.22322 -3.92466 -0.808705
79 1 3.63173 -3.52113 -0.71052
1686 1 3.95258 -2.90776 -0.0570933
1168 1 5.29591 -3.95959 -0.856875
2497 1 4.59303 -3.46931 -0.315257
2586 1 5.51537 -3.24183 -1.17893
2813 2 6.69878 -3.67221 -1.26795
2096 1 5.87415 -3.46766 -0.457553
694 1 -6.58121 -2.53468 -1.33216
623 1 -5.85805 -2.30094 -0.746716
710 1 -6.32065 -1.70479 -1.0743
63 1 -5.06533 -2.7372 -0.0639213
3210 2 -4.72074 -2.05852 -1.11178
2633 1 -5.34911 -1.76505 -0.106828
2325 1 -3.69926 -2.17669 -1.33363
3214 2 -4.4025 -1.58751 -0.629634
2659 1 -3.4505 -2.20495 -0.3791
2993 2 -2.4512 -2.48216 -0.846258
3149 2 -2.15371 -2.13691 -0.130303
2508 1 -3.1002 -1.5677 -1.10527
2273 1 -1.04183 -2.14657 -1.01224
1371 1 -1.02196 -2.46745 -0.226036
2413 1 -1.43266 -1.5097 -0.81819
1787 1 -0.317895 -2.48989 -1.38693
2559 1 -0.509216 -1.72915 -0.454811
404 1 0.346947 -1.91782 -0.831192
1562 1 1.47718 -2.32111 -0.501853
1334 1 0.83936 -2.40454 -1.08994
2022 1 1.27196 -1.47002 -0.394143
970 1 1.09027 -1.48431 -1.26354
143 1 2.82343 -2.51416 -0.218141
3017 2 2.40255 -1.87099 -0.927413
2164 1 2.09711 -2.68218 -0.0390714
164 1 3.54433 -2.07853 -0.995468
3131 2 4.4769 -2.64781 -1.18878
379 1 3.6288 -2.04203 -0.177385
2616 1 4.19873 -1.76703 -0.574269
3420 2 4.96019 -2.44948 -0.63981
3378 2 5.36405 -2.10103 -0.222533
1375 1 4.64154 -1.48602 -1.18562
2510 1 5.59091 -1.65173 -1.31481
1448 1 6.31954 -2.61973 -0.251301
432 1 6.07482 -2.70377 -1.02572
1391 1 6.7458 -2.31088 -1.19249
1777 1 6.97357 -1.89839 -0.557476
1131 1 6.19086 -1.58645 -0.60239
2752 2 -6.7517 -0.790265 -0.677713
2969 2 -6.2041 -0.34475 -0.109384
27 1 -5.55487 -0.262165 -1.08001
1036 1 -5.59495 -1.2883 -0.868526
301 1 -4.60057 -0.614775 -1.0891
2412 1 -5.22208 -0.815242 -0.193371
2190 1 -4.80574 -0.0211651 -0.299245
1259 1 -3.99539 -0.135334 -1.32012
3265 2 -4.17441 -1.01987 -0.139701
790 1 -3.75964 -1.20362 -1.36388
18 1 -3.3951 -0.470808 -0.90993
2079 1 -2.84941 -0.517596 -0.279723
459 1 -2.58274 -1.21723 -0.558559
919 1 -1.88429 -0.840732 -0.326229
1484 1 -0.915181 -0.618082 -0.918686
67 1 -0.627355 -0.873762 -0.257537
3473 2 0.295661 -0.879427 -1.24224
2995 2 0.47812 -0.343524 -0.658606
492 1 0.234707 -1.37395 -0.0855338
3399 2 0.924042 -0.0992122 -0.103501
734 1 1.65075 -0.773878 -0.7971
3049 2 2.65716 -1.27965 -0.523048
405 1 2.52065 -0.243868 -1.1459
1621 1 3.6021 -0.130496 -0.7048