ITEM: TIMESTEP
0
ITEM: NUMBER OF ATOMS
3594
ITEM: BOX BOUNDS pp pp pp
-7.1844603077685596e+00 7.1844603077685596e+00
-7.1844603077685596e+00 7.1844603077685596e+00
-7.1844603077685596e+00 7.1844603077685596e+00
ITEM: ATOMS id type x y z
3116 2 -6.13919 -6.88751 -6.77244
137 1 -6.48554 -6.26322 -5.93585
2409 1 -6.98003 -5.9131 -6.85474
2385 1 -7.01411 -7.13616 -6.3576
3177 2 -5.49446 -6.54319 -6.46514
3290 2 -4.98685 -6.46679 -5.97625
776 1 -4.58816 -6.34449 -6.93167
190 1 -4.02344 -6.76903 -7.1649
1703 1 -3.90948 -6.41191 -6.29881
11 1 -2.48347 -5.91216 -6.777
2126 1 -2.48157 -5.9223 -5.89164
1433 1 -1.99279 -6.62307 -6.14537
1613 1 -3.09918 -6.2793 -6.23146
1718 1 -2.37337 -6.88882 -6.70234
2856 2 -1.07876 -6.03917 -6.47072
614 1 -1.08459 -6.85119 -5.8681
3592 2 -1.50335 -6.15493 -7.09576
1984 1 -0.198348 -6.86019 -6.33989
2406 1 0.319131 -6.28453 -6.57653
2685 1 0.336318 -6.99461 -5.8724
2958 2 1.17393 -7.03036 -6.97124
3544 2 1.57073 -6.6459 -6.30741
1106 1 2.25248 -6.14288 -7.10854
1864 1 2.84876 -6.16624 -6.57073
2152 1 2.67824 -7.03477 -6.35548
75 1 3.53469 -6.04898 -5.98461
2562 1 3.36043 -6.74364 -7.0233
230 1 4.08475 -6.18714 -6.79426
2008 1 4.56661 -6.10928 -6.1964
3148 2 4.30298 -7.01681 -5.95914
1074 1 4.56198 -6.82616 -7.1023
790 1 5.00109 -6.06368 -6.96678
2529 1 5.22403 -6.8474 -6.55179
1026 1 5.53889 -5.98394 -6.19595
1103 1 6.08177 -6.86211 -6.52831
1199 1 6.91676 -6.43761 -6.08482
87 1 6.1741 -6.62595 -5.80521
383 1 7.08621 -6.43345 -7.1755
1812 1 -6.68873 -5.28469 -6.48642
665 1 -6.9841 -4.60549 -6.85846
706 1 -6.47726 -4.32574 -6.28377
2648 1 -6.18598 -5.68666 -7.14652
2336 1 -4.8339 -4.79774 -7.0935
1774 1 -4.89863 -5.05784 -6.46314
1975 1 -5.83704 -5.49846 -6.22139
902 1 -4.05433 -5.0332 -5.82252
2443 1 -4.35127 -5.51098 -6.55849
1228 1 -3.88906 -4.38084 -6.49758
3450 2 -3.14743 -5.16035 -6.55919
3390 2 -2.67576 -4.49321 -5.95121
1693 1 -1.91284 -4.4807 -6.60961
114 1 -1.72726 -5.2847 -6.22013
2164 1 -0.69408 -4.50875 -6.64607
63 1 -1.19072 -4.82949 -5.75953
3044 2 -0.606777 -5.49143 -6.65023
2734 2 -0.31776 -5.21291 -5.9714
2360 1 0.367511 -5.12878 -7.17415
1884 1 0.553651 -5.56929 -6.34
2108 1 1.31697 -4.96121 -6.30937
638 1 1.58386 -5.49683 -6.7899
2539 1 2.66095 -4.72115 -6.91927
214 1 2.30745 -4.69737 -5.87868
853 1 3.00569 -5.3814 -6.23879
2344 1 2.26287 -5.28723 -6.53477
244 1 3.28029 -4.58734 -6.1068
3083 2 4.25628 -4.72372 -6.77201
3198 2 4.23631 -4.92831 -5.92335
994 1 5.60334 -5.10697 -6.16763
1734 1 5.17088 -5.31102 -6.77472
1123 1 5.83016 -4.70004 -7.04818
2824 2 4.60661 -4.32175 -6.06578
2747 2 6.1273 -5.70814 -7.02439
2916 2 6.91456 -5.19443 -5.79199
2840 2 6.57109 -5.33459 -6.42715
105 1 6.58853 -4.35165 -7.01981
1049 1 -6.35209 -3.14329 -6.68048
98 1 -6.41279 -3.54294 -5.82658
3245 2 -5.52126 -4.20931 -6.62091
3101 2 -5.04337 -3.40663 -6.31566
960 1 -5.83583 -3.14797 -7.1598
1463 1 -4.26604 -3.72657 -6.74595
3023 2 -4.51433 -3.11167 -5.8033
366 1 -3.57201 -2.89964 -6.3116
2571 1 -3.27013 -3.47984 -6.66119
2973 2 -2.80388 -3.78548 -5.8094
2512 1 -2.40833 -3.99679 -6.79272
2294 1 -2.15656 -3.22602 -6.69718
2580 1 -1.50172 -3.90157 -6.29139
2167 1 -0.787604 -3.8133 -5.8361
3442 2 -0.694951 -3.0168 -6.67963
2005 1 -1.68884 -2.88139 -5.7632
2253 1 -0.201995 -4.16009 -6.25586
2032 1 0.456416 -4.11901 -6.83527
2516 1 0.640889 -3.21495 -7.06616
23 1 1.25253 -3.97844 -5.91833
2773 2 1.60105 -4.02677 -6.90733
1381 1 0.819425 -3.4949 -6.33233
3407 2 2.15076 -3.80101 -6.3967
2982 2 2.52352 -3.35723 -5.93731
2219 1 3.05879 -3.1187 -6.91138
2523 1 3.31409 -4.05721 -6.98593
1304 1 3.53197 -3.60925 -6.30097
1914 1 4.3668 -3.18324 -5.98204
2454 1 3.81349 -3.46036 -6.91859
2240 1 5.22084 -4.13942 -6.86827
2286 1 5.80631 -3.89671 -6.41955
315 1 5.57066 -2.9886 -6.962
2686 1 4.87601 -3.51282 -6.94667
1316 1 5.27972 -3.05175 -6.28674
2245 1 7.0072 -3.84399 -6.51839
2060 1 5.9796 -2.96318 -5.84224
3180 2 6.69749 -3.03004 -6.9241
551 1 -7.0333 -1.71571 -6.91383
358 1 -6.21887 -1.47524 -6.63615
2979 2 -6.77162 -2.36483 -5.76127
1357 1 -5.13309 -2.18063 -6.04615
3113 2 -5.17006 -1.57891 -6.94891
642 1 -5.8527 -2.44136 -6.61826
1836 1 -3.94521 -2.06663 -6.29333
2102 1 -4.4817 -2.46692 -6.79113
265 1 -3.39338 -1.60217 -6.1243
2865 2 -2.66702 -1.95676 -6.80742
3273 2 -2.36081 -1.70557 -6.1022
854 1 -2.68899 -2.73507 -6.20862
724 1 -1.64937 -2.55139 -6.61939
670 1 -0.988551 -2.48306 -5.81306
2096 1 -0.0359327 -1.63988 -6.35981
3230 2 0.0503029 -2.77202 -6.4555
3267 2 0.356408 -2.6065 -5.80477
2679 1 1.56391 -1.92967 -5.86736
314 1 1.59587 -2.86985 -6.17529
1515 1 1.02688 -1.64088 -6.40174
1674 1 1.1821 -2.57155 -6.90196
102 1 3.1799 -1.92686 -7.02123
433 1 2.58598 -2.06152 -5.95707
1692 1 2.1394 -2.40457 -6.55349
2127 1 3.21676 -2.45936 -6.47149
90 1 3.72042 -1.50827 -6.54487
305 1 4.10773 -1.64568 -5.86944
3060 2 4.45891 -2.34348 -7.01492
1624 1 3.69675 -2.36028 -5.84876
3204 2 4.8483 -2.12507 -6.38362
3353 2 5.49364 -1.77398 -5.75423
586 1 6.04449 -1.87029 -7.1709
609 1 6.71717 -1.64273 -6.35889
2350 1 5.94989 -2.36603 -6.42604
3048 2 7.17631 -2.7279 -6.23431
937 1 -6.82452 -1.34887 -5.82769
3527 2 -6.85383 -0.31007 -6.25895
374 1 -5.82948 -0.667881 -6.95477
2066 1 -5.62724 -0.65045 -6.19336
2524 1 -3.74708 -0.264744 -6.72395
2760 2 -4.56667 -0.898765 -6.21263
1087 1 -3.83304 -1.30944 -6.76855
2585 1 -2.00019 -0.567337 -6.69049
2079 1 -2.9342 -0.767082 -6.3262
607 1 -0.807879 -0.581213 -5.87648
1201 1 -1.13114 -1.35359 -6.44418
1257 1 -1.60345 -1.06961 -7.15833
1487 1 -1.17609 -0.0811045 -6.92208
1001 1 -1.50658 -0.618519 -6.01702
2847 2 -0.245863 -0.547253 -6.69565
1579 1 0.590503 -1.37138 -5.87532
3160 2 0.412504 -0.107645 -6.26129
1756 1 0.278446 -1.36339 -6.99435
37 1 1.75024 -0.15694 -6.90285
149 1 1.40001 -0.823162 -6.23725
770 1 0.937115 -1.03872 -6.95903
3287 2 2.87914 -1.1712 -6.16092
2955 2 2.26338 -1.30953 -6.73939
911 1 3.36398 -0.611432 -7.12883
1453 1 3.92992 -0.499463 -6.43204
1348 1 4.20928 -1.15579 -7.05603
2228 1 5.71036 -0.477333 -6.69091
1660 1 5.50519 -1.17302 -6.97418
2628 1 5.53603 -0.353214 -5.79538
2065 1 4.75044 -0.894296 -6.09519
1028 1 6.15729 -0.948084 -6.20236
3473 2 7.06768 -0.611713 -6.94195
1739 1 -6.21525 -7.07398 -5.5652
2974 2 -6.66253 -6.80458 -4.4789
3042 2 -7.06353 -7.09698 -5.00107
2485 1 -5.45075 -6.92325 -4.93222
831 1 -5.8451 -6.24688 -5.20333
47 1 -5.40012 -6.10711 -4.50382
1052 1 -4.38972 -6.83448 -4.91343
1353 1 -3.77149 -6.51108 -5.49783
3486 2 -4.56045 -5.82735 -5.28257
2432 1 -3.339 -6.05183 -4.92437
3381 2 -2.14397 -6.47579 -4.78025
3289 2 -2.74892 -6.89743 -5.26837
1156 1 -1.4143 -5.89318 -5.443
458 1 -1.14864 -6.71788 -5.05427
167 1 -0.950198 -5.75685 -5.01152
306 1 -0.818461 -6.50608 -4.34478
1831 1 -0.332203 -6.36909 -5.7097
2655 1 0.637496 -6.24766 -5.70589
3513 2 0.245612 -6.976 -4.63057
148 1 0.155527 -5.86314 -5.03018
3009 2 1.76641 -6.1158 -5.74007
2481 1 1.19847 -7.06276 -5.51552
1096 1 1.77444 -6.9265 -4.98928
187 1 1.22875 -6.18727 -4.79605
1171 1 2.87463 -6.39421 -4.75333
912 1 2.63723 -6.79248 -5.37704
1921 1 4.38906 -5.75474 -4.72363
553 1 3.68263 -6.63996 -5.02348
735 1 4.34297 -6.79122 -4.41235
321 1 3.85918 -5.83368 -5.36017
2413 1 5.83029 -5.88419 -5.35957
3281 2 5.17086 -6.47456 -4.7404
3164 2 4.69579 -6.76871 -5.39319
182 1 6.04842 -6.9093 -4.95869
1018 1 6.54231 -5.90301 -4.89126
1339 1 7.14126 -6.00119 -5.28243
688 1 -5.92958 -4.63117 -5.71806
531 1 -6.46215 -5.69556 -4.65412
316 1 -7.07705 -5.37865 -4.31106
3424 2 -6.87345 -4.88983 -5.38419
3142 2 -6.40253 -4.38486 -4.63891
2433 1 -4.61676 -4.42248 -5.56279
507 1 -5.23998 -4.65655 -4.89115
2155 1 -5.70561 -5.37963 -5.31776
3190 2 -4.1344 -5.29672 -4.75627
2104 1 -3.5266 -4.3865 -5.1378
1634 1 -3.25247 -5.39303 -5.46286
730 1 -2.96573 -4.90423 -4.8631
678 1 -2.27614 -5.53375 -5.37722
1988 1 -2.92221 -5.59557 -4.32145
3168 2 -2.06017 -4.38515 -5.43812
2538 1 -1.59823 -5.19644 -4.91971
1204 1 -0.506812 -5.22602 -4.49879
1132 1 -0.6252 -4.46332 -4.91339
3090 2 0.228061 -4.68271 -5.32824
3151 2 0.623017 -4.49442 -4.77505
2034 1 1.07993 -5.45915 -5.29955
579 1 1.50067 -4.72576 -5.47455
955 1 1.66834 -5.02623 -4.53942
2418 1 2.16091 -4.37662 -4.40913
3406 2 2.88786 -5.28734 -4.73761
3169 2 2.44598 -5.70603 -5.29342
1824 1 4.34978 -4.86757 -4.75544
2712 1 5.0721 -5.54991 -5.65469
677 1 5.35702 -5.29217 -5.01288
748 1 5.87339 -4.75639 -4.58442
783 1 6.58837 -5.1727 -4.73452
1714 1 5.91117 -4.97702 -5.32974
317 1 -7.06672 -3.33117 -4.49404
1046 1 -6.26077 -3.14703 -4.92775
544 1 -5.65268 -3.84159 -5.34044
1271 1 -4.85034 -3.6918 -4.87673
2011 1 -5.74576 -2.93798 -5.46847
847 1 -5.35797 -3.25503 -4.44264
1962 1 -3.75944 -3.90638 -5.62784
895 1 -3.80096 -3.74554 -4.89811
2349 1 -4.38546 -4.11479 -4.64311
389 1 -2.78188 -4.13478 -4.60653
2233 1 -2.75958 -3.37893 -4.31448
659 1 -3.16886 -3.26396 -5.05443
475 1 -2.36208 -2.92201 -5.27975
3209 2 -1.67037 -3.88154 -5.03903
2589 1 -0.270996 -3.51148 -4.76145
130 1 0.070653 -3.73498 -5.59392
81 1 0.515556 -3.45473 -4.81367
2820 2 1.10003 -4.04339 -4.34957
258 1 1.73726 -3.91842 -5.33841
840 1 1.13379 -3.31925 -5.42339
39 1 1.36096 -2.9968 -4.57619
2207 1 3.00764 -4.21356 -4.53317
1960 1 3.15796 -4.30884 -5.36068
1268 1 2.33065 -4.27761 -5.15551
2186 1 2.32258 -3.43557 -4.67517
3282 2 3.0501 -3.12965 -5.5215
3520 2 3.27676 -3.01418 -4.70018
536 1 3.99546 -3.72208 -5.4791
170 1 3.86978 -4.29492 -4.93144
959 1 4.38216 -3.37366 -4.89856
601 1 4.7137 -3.92599 -4.42449
2942 2 5.20049 -4.04026 -5.43331
1658 1 5.30493 -2.95965 -5.31536
3411 2 5.79114 -3.53607 -4.66982
2119 1 6.77659 -4.13311 -4.69964
1226 1 6.26101 -4.09355 -5.67325
173 1 7.12592 -3.90779 -5.66241
2403 1 6.87084 -3.19557 -5.33878
2765 2 -6.40354 -2.04226 -4.76055
106 1 -5.59788 -1.79699 -5.66059
1759 1 -5.26998 -2.33105 -5.0749
2241 1 -4.46361 -1.89912 -5.60088
1577 1 -3.74425 -1.67844 -4.88591
3246 2 -3.88654 -2.55978 -4.35804
3039 2 -4.21956 -2.86178 -5.18603
1298 1 -3.42648 -1.92434 -5.50612
2129 1 -3.29055 -2.59949 -5.62028
3221 2 -1.96845 -1.68887 -5.32489
1042 1 -2.60893 -2.24453 -4.8106
754 1 -1.72512 -2.58055 -4.8222
965 1 -0.952867 -1.97418 -4.62978
717 1 -0.0771927 -1.70292 -4.76628
2033 1 -0.591209 -2.78856 -5.16
2208 1 -0.525301 -1.6493 -5.69925
2928 2 0.526456 -2.3121 -5.09636
3313 2 1.25836 -1.83606 -4.82806
2318 1 1.89849 -2.7586 -5.22215
549 1 2.69613 -2.23757 -5.09768
1915 1 2.26195 -2.34038 -4.38363
971 1 2.96934 -1.71291 -4.70799
323 1 3.84924 -1.89295 -5.28523
3504 2 3.88099 -2.43886 -4.34393
1439 1 4.55594 -2.6501 -5.42217
681 1 5.83794 -2.35916 -4.86475
184 1 4.9402 -2.81596 -4.34241
482 1 4.74803 -2.13172 -4.92664
2156 1 5.39199 -1.96191 -4.33461
495 1 6.48349 -2.22458 -5.33011
1496 1 6.76135 -1.6186 -5.63871
996 1 6.75279 -1.78846 -4.50237
1168 1 7.00489 -2.60306 -4.69094
2517 1 -7.12013 -1.29136 -4.85412
1286 1 -6.16381 -1.11072 -5.52076
1442 1 -6.56412 -0.711907 -5.03749
470 1 -6.19799 -0.0664958 -4.42987
884 1 -6.96434 -0.128244 -4.7133
492 1 -4.77666 -1.38339 -4.70466
571 1 -5.53404 -0.587095 -5.13095
2118 1 -5.12345 -0.503564 -4.44765
457 1 -4.91496 -0.262067 -5.38633
3079 2 -4.0833 -0.717346 -5.55314
900 1 -4.07924 -0.913647 -4.32517
3108 2 -3.61451 -0.26354 -4.98624
196 1 -2.25834 -0.592904 -5.61754
2133 1 -2.51875 -1.0107 -4.78489
1430 1 -2.10475 -0.269982 -4.66343
1821 1 -2.94958 -1.01103 -5.50595
3054 2 -1.05684 -0.692418 -4.48492
3129 2 -1.35995 -1.1924 -4.96289
406 1 -0.212256 -0.92519 -5.42937
520 1 0.623874 -0.690474 -4.76808
2338 1 0.0504614 -0.173384 -5.13208
2495 1 1.55081 -1.04954 -5.46578
1362 1 1.84973 -0.620661 -4.73516
2027 1 2.05973 -0.302875 -5.65494
2150 1 2.31021 -1.3387 -5.24421
59 1 2.77819 -0.967001 -4.46815
1558 1 2.65835 -0.201467 -4.86913
3130 2 3.33406 -1.02751 -5.62388
2016 1 3.81555 -1.3665 -4.3893
1977 1 4.565 -1.31045 -4.96832
3309 2 3.6395 -0.511484 -5.18505
412 1 4.55405 -0.0499947 -5.63463
359 1 4.74936 -0.533072 -4.97646
2862 2 5.79589 -1.08725 -5.13925
760 1 6.06811 -0.00107008 -5.66048
2407 1 6.82339 -0.738995 -5.46359
3558 2 6.26114 -0.689791 -4.56361
3368 2 -6.25816 -6.4277 -3.97315
2248 1 -7.05903 -6.63158 -3.22127
3499 2 -5.88172 -6.13243 -3.319
2105 1 -4.86281 -6.40467 -4.07975
2709 1 -4.83129 -6.72599 -3.28014
699 1 -4.10007 -6.36323 -4.2051
1510 1 -4.17908 -5.90246 -3.05851
2994 2 -3.60091 -7.16186 -3.05033
2582 1 -3.60844 -6.19586 -3.55935
129 1 -3.56375 -6.86232 -4.24783
2218 1 -2.96539 -6.60808 -3.95583
1311 1 -2.65753 -7.11532 -3.12275
1296 1 -2.47595 -6.23267 -3.24912
1331 1 -1.599 -6.97316 -3.7331
3025 2 -1.91845 -5.90092 -4.19281
1145 1 -1.73826 -6.4722 -3.14069
2093 1 -0.767638 -6.43587 -3.23124
1215 1 -0.282323 -5.81502 -3.83014
567 1 -0.566286 -7.06589 -3.73734
462 1 0.0598914 -6.67059 -3.09751
3067 2 0.666021 -6.52223 -4.02519
1437 1 1.39518 -7.13663 -2.89828
3416 2 1.24589 -6.23218 -3.44705
1395 1 2.0222 -6.87501 -4.0702
1578 1 2.01633 -6.00657 -4.29594
1068 1 2.59497 -6.208 -3.69865
1542 1 2.07156 -6.85887 -3.33036
826 1 3.58397 -6.3149 -4.04618
1355 1 3.4757 -6.08925 -3.30275
1667 1 4.3596 -6.45563 -3.65506
795 1 5.43546 -7.10297 -3.85329
3270 2 5.37102 -6.0757 -4.12305
1000 1 5.15301 -6.14123 -2.96533
208 1 5.41793 -6.92793 -3.00576
1585 1 6.99896 -5.96811 -3.92112
1299 1 6.49763 -6.69046 -4.25401
2138 1 6.05747 -6.65341 -3.43656
1860 1 6.70601 -7.02543 -3.5874
2337 1 -6.08522 -5.2224 -4.01594
2175 1 -6.75988 -5.44005 -3.30924
18 1 -6.8541 -4.56501 -3.22244
1815 1 -5.88769 -4.67796 -3.02001
1535 1 -5.31446 -5.10159 -4.02543
920 1 -4.83178 -5.63172 -3.75281
2688 1 -4.64424 -4.8883 -3.00376
2884 2 -3.86201 -5.15014 -3.93845
3344 2 -3.32773 -4.63047 -3.55513
649 1 -2.34326 -4.98737 -4.23216
97 1 -2.3042 -5.27392 -3.2416
1965 1 -3.14147 -5.59922 -3.07345
3497 2 -1.39389 -5.64067 -3.72582
346 1 -1.45751 -4.54714 -4.07565
3102 2 -0.719055 -5.09824 -3.20241
583 1 -1.7738 -4.60169 -3.13272
2301 1 0.0546406 -4.85105 -3.84961
2545 1 0.483339 -5.4614 -3.18106
1036 1 0.585705 -4.36038 -2.98212
2525 1 0.711761 -5.5281 -4.3021
1465 1 1.05176 -5.00255 -3.58086
798 1 2.01828 -5.25141 -3.85939
2303 1 2.66644 -4.42288 -3.75689
617 1 2.87788 -5.29971 -3.34527
1084 1 1.99548 -4.74167 -3.16039
2625 1 2.59508 -4.43629 -2.88702
3524 2 3.4089 -5.30793 -4.27406
974 1 4.46946 -5.54454 -3.8839
2766 2 3.66666 -4.73168 -3.77724
1333 1 4.36614 -5.61729 -3.11769
3476 2 4.21972 -4.44821 -3.2213
1628 1 5.12865 -4.75102 -4.05719
3063 2 5.85597 -5.67328 -3.78421
393 1 5.21356 -5.0081 -3.35645
1529 1 7.04351 -4.60917 -3.9567
732 1 6.07199 -4.41965 -3.78832
3167 2 6.37462 -5.37262 -3.36551
2922 2 -6.05421 -4.144 -4.00855
1350 1 -6.91312 -3.70609 -3.7815
161 1 -4.80561 -4.30217 -3.75955
3295 2 -5.20528 -3.64207 -3.12933
778 1 -4.60348 -3.1641 -3.99947
3375 2 -5.78737 -3.49485 -3.60098
3556 2 -5.21223 -2.93596 -2.8859
532 1 -3.95914 -3.74571 -4.05143
2379 1 -4.09941 -3.88964 -3.21432
1749 1 -4.1731 -3.00557 -3.28752
2597 1 -3.34429 -3.30686 -3.85238
658 1 -3.32639 -3.14295 -3.01703
1576 1 -2.26751 -4.21457 -4.02787
3325 2 -2.89732 -4.26767 -3.1227
941 1 -2.35685 -3.39323 -3.4584
1373 1 -0.766726 -3.96983 -3.18449
1732 1 -1.69796 -3.80312 -3.27928
3333 2 -1.33282 -3.40309 -4.29162
2806 2 -1.03261 -2.90983 -3.65629
277 1 -0.649121 -4.20774 -4.14169
835 1 -0.00605537 -3.62593 -3.91704
2574 1 0.0841365 -3.94786 -3.22126
1120 1 0.58628 -3.15912 -3.3898
2907 2 1.46978 -3.78947 -3.59676
2312 1 2.80455 -3.65882 -3.83559
2818 2 2.01479 -3.67782 -2.96047
1214 1 3.18164 -4.09377 -3.05686
2299 1 2.36884 -2.99546 -3.95942
1227 1 3.40137 -3.31686 -3.10082
1830 1 3.66363 -3.8263 -4.18537
220 1 4.08474 -3.36238 -3.77172
5 1 4.23437 -2.97219 -3.10364
559 1 5.06501 -3.99623 -3.5423
1853 1 5.74812 -4.01734 -3.0044
1886 1 5.14957 -3.24785 -3.46037
2596 1 6.84778 -3.90834 -3.40724
2839 2 6.25722 -3.27635 -4.18918
3068 2 6.44086 -2.90033 -3.55435
288 1 -6.8956 -2.74178 -3.98661
1803 1 -6.91083 -1.77398 -3.84886
1485 1 -6.22179 -2.80849 -4.1995
552 1 -6.40203 -2.64378 -3.26991
160 1 -6.14621 -1.86597 -3.29831
2430 1 -4.96331 -2.28443 -4.2705
27 1 -5.5519 -2.34045 -3.68705
3511 2 -5.83747 -1.49445 -4.28656
1024 1 -4.6196 -2.20897 -3.36628
1872 1 -5.22811 -1.77761 -2.93714
1544 1 -4.52557 -1.64405 -3.95879
2031 1 -4.07344 -1.60174 -2.89591
3391 2 -3.41439 -2.31257 -3.9817
218 1 -2.12221 -2.79969 -4.08817
512 1 -2.00549 -1.83564 -4.15385
3554 2 -2.99169 -1.99603 -3.43623
976 1 -1.56764 -2.11998 -3.54816
279 1 -1.44809 -1.88022 -2.87593
247 1 -0.64518 -1.58836 -3.60777
1303 1 -0.290814 -2.26399 -4.04565
3502 2 -0.526384 -2.71256 -2.99624
2368 1 0.290356 -2.83781 -4.24601
762 1 0.505796 -2.21102 -3.86854
2957 2 0.140508 -2.23825 -2.93843
3393 2 1.50558 -1.50995 -4.17522
370 1 1.40086 -2.63083 -3.7117
1457 1 1.38029 -2.70962 -2.88562
674 1 1.06014 -1.71187 -3.14559
767 1 2.91643 -1.69222 -3.73422
1955 1 2.24497 -2.31351 -3.29869
206 1 3.10566 -2.68484 -3.53602
2995 2 4.26055 -2.00152 -3.67528
3389 2 4.46943 -1.56111 -3.10799
80 1 5.41342 -2.57602 -3.69418
1477 1 5.0046 -2.48329 -3.14588
2204 1 5.58328 -2.12185 -2.87795
1664 1 6.22868 -1.55453 -3.85334
3095 2 6.92109 -2.27458 -3.14559
2168 1 -6.69904 -0.822001 -4.17563
1778 1 -6.12235 -0.0796452 -3.67122
1086 1 -6.51475 -0.955717 -3.2379
3153 2 -5.60474 -0.907513 -3.71333
3259 2 -5.02483 -0.848258 -3.22925
349 1 -4.28673 -0.217387 -3.95832
2534 1 -3.74951 -1.13685 -3.66259
657 1 -3.61127 -0.13096 -3.38232
1450 1 -2.97365 -0.951843 -3.88233
1746 1 -2.04348 -0.861502 -3.82231
2583 1 -2.80576 -0.343287 -3.15838
3584 2 -0.658237 -0.535993 -3.55116
594 1 -1.85934 -0.542709 -3.16276
2325 1 -1.464 -1.25866 -3.56024
3462 2 -0.398094 -0.239774 -4.25516
1603 1 -0.0890056 -1.25531 -4.15237
397 1 0.237121 -1.27271 -3.24291
3086 2 0.0428371 -0.129389 -3.58093
1009 1 1.67333 -0.310407 -3.89579
508 1 0.861125 -0.682012 -3.79495
2424 1 2.50762 -0.26556 -4.01362
816 1 3.18682 -0.555628 -4.01686
3268 2 2.04179 -1.10981 -3.61383
3022 2 2.41333 -0.785742 -3.02
194 1 3.35011 -0.434038 -3.34191
1753 1 3.43493 -1.3656 -3.21427
695 1 4.03373 -0.708047 -3.84726
643 1 3.93405 -0.425003 -2.91107
593 1 5.10574 -1.22764 -4.08989
2665 1 5.33873 -0.367547 -4.22629
477 1 5.58326 -0.273835 -3.55988
1816 1 4.75873 -0.524215 -3.45037
2095 1 5.79189 -1.12395 -3.57225
3154 2 6.65267 -0.296934 -3.93324
1147 1 6.70266 -1.06612 -3.22226
2532 1 -5.968 -6.91727 -1.55462
1368 1 -7.01825 -5.93973 -2.44375
850 1 -6.24343 -5.90794 -1.83879
652 1 -5.7939 -6.64344 -2.42143
2750 2 -5.38104 -5.84524 -2.86788
694 1 -4.98229 -6.50783 -2.15951
797 1 -3.74412 -6.74241 -1.73147
1073 1 -4.07919 -5.78754 -2.07695
1091 1 -4.37803 -7.07539 -2.29221
2861 2 -3.31521 -6.51871 -2.51623
3346 2 -2.8171 -6.15667 -1.97169
2548 1 -2.08838 -7.15384 -2.50589
811 1 -2.71734 -7.17447 -1.53823
1825 1 -0.92811 -5.93881 -2.22029
1574 1 -1.65592 -6.42279 -2.30073
680 1 -0.71912 -6.06114 -1.50341
2919 2 -0.811987 -7.14251 -2.32585
2447 1 -1.84182 -6.64864 -1.61504
1905 1 -0.287802 -6.01314 -2.71886
2849 2 -0.0872505 -7.11981 -1.92422
896 1 0.584366 -6.38319 -2.58126
2421 1 1.32019 -6.86487 -2.08887
3480 2 1.93321 -5.77139 -2.82954
1351 1 1.54072 -5.9238 -1.53884
1514 1 2.03328 -6.64973 -1.90165
1953 1 2.65331 -6.70289 -2.6586
421 1 2.75688 -6.45793 -1.82984
1617 1 3.40432 -5.86561 -1.95435
2898 2 4.2764 -6.68127 -2.36303
2920 2 3.68892 -6.97505 -2.8082
2963 2 4.70641 -6.13921 -1.86755
1447 1 5.68393 -6.99405 -2.24649
1197 1 6.42036 -6.20061 -2.69435
1509 1 6.43692 -5.79286 -2.02057
3403 2 6.8436 -6.93948 -1.87281
1920 1 5.8968 -6.26071 -1.73395
1365 1 -6.04005 -4.79673 -2.15882
2506 1 -6.56065 -5.24022 -2.43657
1449 1 -6.65143 -5.30315 -1.49565
3114 2 -5.19132 -5.36469 -2.17136
3514 2 -4.79852 -5.02062 -1.68193
2273 1 -5.19715 -4.37987 -2.4431
2172 1 -4.04254 -5.01553 -2.50799
1526 1 -3.46902 -5.08976 -1.55516
1294 1 -3.51038 -4.35045 -2.04307
2715 1 -3.2593 -5.06599 -2.48716
1881 1 -2.75665 -4.80629 -1.60628
1340 1 -2.02764 -4.92943 -2.38637
1588 1 -1.87023 -5.73511 -2.57025
741 1 -1.10854 -5.12538 -1.77385
2864 2 -0.507116 -4.69338 -2.51897
2264 1 -0.0144436 -5.7175 -1.74434
3545 2 0.158547 -4.57966 -2.11793
1124 1 1.12268 -4.87684 -2.62629
1207 1 1.63301 -4.41488 -2.05363
1950 1 0.846239 -5.68605 -2.15838
2793 2 2.15773 -5.60026 -2.16816
3047 2 2.49499 -5.00685 -1.88795
2561 1 3.08734 -5.37865 -2.65329
1765 1 3.96568 -5.65008 -2.38772
1397 1 3.61047 -4.84345 -2.10533
320 1 5.55411 -5.5698 -2.47011
376 1 5.48006 -4.59981 -2.64712
2170 1 4.82073 -5.2039 -2.4176
2370 1 5.3231 -4.59355 -1.85608
2137 1 6.87739 -5.48737 -1.4996
2814 2 6.6025 -5.03413 -2.82201
668 1 6.15037 -4.9005 -1.74057
3024 2 7.03832 -4.57753 -2.28257
830 1 -6.37137 -4.08286 -2.78616
3358 2 -6.95614 -4.01949 -1.75637
2085 1 -6.83055 -3.32157 -2.81462
1939 1 -6.34391 -2.92221 -2.39986
2684 1 -5.79083 -3.73122 -2.25757
371 1 -5.45314 -4.17466 -1.50005
232 1 -4.64957 -3.78949 -2.00521
1770 1 -4.17709 -4.13234 -2.4918
1672 1 -3.71233 -3.24924 -2.28614
3195 2 -2.74505 -3.97592 -2.41633
3004 2 -2.30649 -3.53671 -1.9616
1169 1 -1.96448 -2.90006 -2.79039
440 1 -1.29383 -4.08245 -1.98207
2581 1 -1.36056 -3.41463 -2.59388
211 1 -0.567404 -3.69195 -1.70795
1083 1 -0.103461 -3.43524 -2.30288
3006 2 0.547733 -3.98832 -1.64879
1478 1 0.399166 -3.02447 -1.51484
132 1 1.93141 -3.79584 -1.55978
1909 1 0.933572 -3.66239 -2.71828
375 1 1.22872 -3.17086 -1.99347
784 1 3.1851 -3.83368 -2.21573
3071 2 2.4121 -3.04683 -2.52482
3215 2 4.25371 -4.11655 -2.49594
1866 1 4.06667 -3.47611 -1.5271
3471 2 4.79103 -3.83197 -2.28594
348 1 5.53719 -3.04016 -2.57887
2761 2 5.14213 -3.19485 -1.74814
1118 1 6.44754 -3.73964 -2.55831
84 1 5.88592 -4.04453 -2.04144
2718 1 7.00494 -2.91458 -1.86078
953 1 -6.63228 -2.60925 -1.50919
3367 2 -7.03651 -1.99791 -2.45415
133 1 -5.99909 -1.57953 -2.75361
2976 2 -6.54707 -1.60811 -1.65688
3397 2 -4.79585 -2.75153 -2.40026
1633 1 -5.68762 -2.80832 -1.73909
377 1 -5.51613 -1.75768 -2.00976
3394 2 -4.35526 -2.31595 -1.66003
970 1 -3.64455 -2.26074 -2.81417
1185 1 -3.34328 -1.4616 -1.9645
1063 1 -3.04303 -2.35404 -1.89656
997 1 -2.91418 -2.83009 -2.584
2848 2 -2.59086 -1.62098 -2.85524
1153 1 -0.660286 -1.92304 -1.69434
1032 1 -0.939803 -2.82796 -1.97797
351 1 -1.74399 -2.43222 -2.0826
2122 1 -0.530296 -1.57692 -2.43049
3187 2 0.521568 -2.27693 -2.2766
1499 1 1.75845 -2.31842 -2.01186
2669 1 1.8688 -1.87554 -2.75009
3226 2 0.949758 -1.70292 -1.70075
1513 1 2.68569 -1.75556 -2.68918
3338 2 2.91416 -2.47538 -1.80574
2924 2 3.0478 -1.62782 -1.71054
172 1 3.51992 -2.40604 -2.81248
2459 1 3.93942 -1.82578 -2.30218
1413 1 4.10052 -2.56583 -1.44434
2353 1 4.04705 -2.79469 -2.31396
1659 1 4.4538 -1.73089 -1.67222
1911 1 5.5409 -2.0315 -1.76459
212 1 4.85597 -2.23304 -2.07573
1704 1 6.52607 -2.01248 -1.74136
468 1 6.2087 -2.72071 -2.16049
13 1 -5.92439 -0.727029 -2.4027
1557 1 -6.73704 -0.504463 -2.14458
2022 1 -4.92368 -0.346521 -1.69475
892 1 -5.2786 -0.881436 -2.09117
2023 1 -5.73401 -0.0637333 -2.83086
2566 1 -4.45916 -1.36844 -2.24091
3188 2 -4.35482 -0.355574 -2.69787
3414 2 -3.90996 -0.226701 -1.94241
2387 1 -3.42711 -1.00684 -2.56303
2987 2 -2.10916 -1.37065 -2.38625
2457 1 -2.40591 -0.158353 -2.14002
921 1 -2.83546 -0.859161 -1.60355
3241 2 -1.51159 -1.09599 -1.92653
1446 1 -0.882053 -0.79435 -2.5569
2780 2 -1.386 -0.497154 -1.51756
1427 1 -0.335924 -1.17471 -1.71533
1375 1 -0.228646 -0.245433 -1.99479
1606 1 0.248527 -0.989755 -2.44844
1312 1 0.651268 -0.345124 -1.66122
1847 1 1.74892 -0.409278 -2.01409
2317 1 1.34511 -0.0208238 -2.61673
1310 1 1.22634 -1.00278 -2.70602
1917 1 1.90804 -1.22748 -2.09345
2030 1 2.2086 -0.863969 -1.49845
3380 2 3.00476 -0.849021 -2.03498
3082 2 2.66582 -0.177886 -2.45457
2057 1 4.21264 -0.936114 -1.96145
497 1 4.44438 -0.0488777 -2.00617
3569 2 5.65898 -0.38033 -1.55529
3310 2 5.04259 -1.15977 -2.70665
3463 2 5.33649 -0.860123 -2.08602
1393 1 6.25845 -1.39619 -2.63835
1612 1 6.34266 -0.500542 -2.78572
2556 1 7.17626 -0.40293 -1.44233
2577 1 6.31592 -1.09865 -1.93501
1912 1 6.57473 -0.129596 -2.16541
2423 1 7.17679 -0.983798 -2.44823
3231 2 -6.8123 -6.25866 -0.764192
1151 1 -5.32235 -6.29184 -1.33143
1443 1 -5.13641 -6.06883 -0.458933
698 1 -5.84135 -6.66932 -0.657885
3171 2 -4.44668 -6.8185 -0.763652
2810 2 -3.90072 -6.46119 -0.158657
201 1 -4.54206 -5.88582 -1.06004
1717 1 -3.7988 -5.85689 -1.25559
2180 1 -3.25963 -6.74723 -1.00809
156 1 -2.81456 -6.23622 -0.853904
1785 1 -2.55696 -6.89042 -0.436871
1540 1 -1.67252 -6.64925 -0.867199
919 1 -0.901074 -6.953 -1.16707
2346 1 -0.984014 -6.5867 -0.153706
493 1 -0.536366 -6.35571 -0.609303
2914 2 0.212436 -6.66489 -1.3878
1743 1 1.73961 -6.74033 -1.13523
3223 2 0.725238 -6.09542 -0.2962
3141 2 0.787643 -6.126 -1.04837
2143 1 1.20794 -7.066 -0.456739
2988 2 3.01976 -7.05661 -0.679837
2572 1 2.141 -6.19549 -0.752953
3248 2 3.17608 -6.69452 -0.10591
2469 1 3.47577 -6.03833 -0.90393
408 1 4.2718 -6.26788 -0.637597
2468 1 3.66365 -6.56198 -1.3361
968 1 5.1985 -6.86014 -1.24577
2366 1 5.04189 -6.56393 -0.106923
822 1 5.697 -6.3397 -0.377715
405 1 4.79268 -5.81634 -0.158594
2258 1 5.97746 -6.42992 -0.964769
1266 1 6.2904 -7.08841 -0.519208
2872 2 7.03906 -6.70311 -1.25078
296 1 6.75726 -6.36166 -0.129007
65 1 -6.18715 -4.6216 -0.682162
2791 2 -6.39821 -5.6869 -0.438727
1972 1 -6.08915 -4.74076 -1.34612
918 1 -6.91182 -4.56282 -0.924476
2384 1 -5.46053 -5.0265 -0.600367
2319 1 -5.59284 -5.5076 -1.32896
622 1 -4.00861 -5.48252 -0.470863
3557 2 -4.26531 -4.57955 -1.20222
3329 2 -3.86958 -4.48222 -0.499825
2676 1 -2.92703 -4.69012 -0.607558
283 1 -3.06627 -5.57437 -0.622626
3525 2 -2.18539 -5.48875 -1.22936
2968 2 -1.49735 -5.64184 -0.794874
1479 1 -1.75824 -4.46343 -1.27885
3494 2 -1.40596 -5.0782 -0.261445
1581 1 -0.309973 -5.51578 -0.632038
68 1 -0.439129 -5.04419 -1.26196
988 1 0.0675716 -4.6362 -0.565183
2142 1 0.293067 -5.04954 -1.24094
1313 1 1.18429 -4.98304 -1.35918
995 1 0.904624 -4.95723 -0.50377
1593 1 1.88778 -4.4849 -1.0814
1297 1 1.89058 -5.35397 -0.849116
1533 1 2.73999 -5.71641 -1.05197
513 1 2.17432 -4.37804 -0.365686
1777 1 2.75867 -5.61581 -0.286473
3491 2 3.00057 -4.7546 -1.2309
3430 2 3.4138 -4.4541 -0.697248
1619 1 3.92951 -5.23844 -1.15261
786 1 3.86205 -5.57364 -0.264108
1097 1 4.38313 -4.35946 -1.31799
2941 2 4.97286 -5.52948 -1.36198
3196 2 5.83769 -4.89903 -0.0300386
1608 1 4.71623 -4.62267 -0.687575
2756 2 5.50978 -5.20756 -0.681773
404 1 7.05341 -5.06145 -0.168894
262 1 6.6897 -4.34404 -0.905374
2269 1 6.5436 -5.52437 -0.85017
2440 1 -5.99751 -4.13363 -0.0253796
2236 1 -7.17643 -4.16588 -0.109985
3489 2 -6.51158 -3.70028 -1.28773
3571 2 -6.05215 -3.28759 -0.707596
757 1 -5.15968 -4.02164 -0.607457
3382 2 -5.52633 -2.88929 -0.0598503
1789 1 -4.98354 -3.33949 -1.37406
2590 1 -4.19199 -3.51883 -1.24646
2598 1 -4.47 -3.54436 -0.390947
2969 2 -3.46798 -3.85314 -0.146256
1055 1 -3.45124 -3.25851 -1.37628
318 1 -3.57363 -2.90565 -0.564621
1943 1 -1.98378 -4.01967 -0.143327
354 1 -2.38921 -4.22617 -1.08274
2237 1 -3.13819 -3.89686 -1.22851
1870 1 -2.3831 -3.41423 -0.328492
2075 1 -1.42281 -3.66807 -0.357227
2028 1 -0.737258 -4.04736 -0.421061
3150 2 -1.66083 -3.32803 -1.40009
3149 2 -1.17353 -2.90153 -0.867479
827 1 -0.55951 -4.26598 -1.22375
3143 2 -0.417336 -3.22246 -0.873584
2278 1 0.389328 -4.06733 -0.0106324
3387 2 0.831486 -3.88137 -0.893944
3111 2 1.33686 -3.50695 -0.600067
1757 1 2.77233 -3.70407 -1.35228
1833 1 2.6897 -3.26985 -0.682727
800 1 3.43625 -2.94557 -0.0853781
889 1 3.42944 -3.05247 -0.896886
3036 2 3.76703 -3.86122 -0.338558
147 1 4.37493 -3.39631 -0.858181
1092 1 5.11082 -4.04814 -1.19021
1209 1 5.81047 -3.86208 -0.748004
2680 1 5.08998 -3.72852 -0.318196
2395 1 6.33473 -3.3388 -1.31707
1639 1 6.99631 -3.27124 -0.747869
2288 1 -6.57313 -2.39086 -0.545144
1572 1 -7.1353 -2.17798 -0.899778
1841 1 -6.1535 -1.68288 -0.3776
676 1 -5.67551 -2.17647 -1.11483
2508 1 -4.66208 -2.7892 -0.752753
910 1 -5.00998 -1.50923 -1.23735
1062 1 -5.10822 -1.89876 -0.467271
2261 1 -4.24576 -1.96418 -0.151638
2805 2 -3.77611 -2.0456 -1.22308
2304 1 -1.96539 -2.6815 -0.0408407
3405 2 -3.04938 -1.77062 -0.510833
1455 1 -2.15828 -2.17214 -1.29706
2056 1 -2.43901 -2.72337 -0.753497
1838 1 -1.65602 -1.7746 -0.880485
2081 1 -0.203923 -1.5417 -0.925747
3078 2 -0.642108 -2.53426 -0.32787
176 1 -0.00498835 -2.29067 -1.33984
1008 1 0.45455 -2.14182 -0.654917
636 1 0.397421 -2.84074 -0.264068
925 1 1.09272 -2.56199 -1.16023
236 1 1.49669 -1.95259 -0.506868
2012 1 2.42406 -2.35231 -0.504932
1037 1 2.05886 -2.82185 -1.26782
3357 2 3.23089 -2.02319 -1.18071
546 1 1.97344 -1.70786 -1.14801
3045 2 3.92438 -1.44985 -0.72779
1467 1 4.43097 -2.39416 -0.347833
940 1 5.14513 -1.8088 -0.15253
3257 2 5.55292 -2.80972 -1.06707
455 1 4.8573 -2.06308 -1.15041
3330 2 6.28925 -2.02148 -0.227309
2450 1 5.95218 -1.61393 -1.24087
3311 2 6.2192 -2.57187 -0.626512
425 1 -7.14837 -0.419437 -0.671369
2171 1 -6.4064 -0.080377 -1.35343
615 1 -6.4546 -0.549897 -0.428458
3056 2 -6.00765 -0.977165 -1.24838
382 1 -6.96395 -1.18019 -0.373529
3184 2 -4.90059 -0.420637 -0.101914
3374 2 -5.43742 -0.567803 -0.654155
441 1 -3.95885 -0.0350051 -0.5367
2397 1 -4.28896 -1.14272 -0.6263
2179 1 -4.38815 -1.03262 -1.41251
143 1 -3.44715 -0.689197 -0.844559
2593 1 -2.69723 -0.386408 -0.503593
2398 1 -2.23902 -1.04821 -1.12309
2058 1 -1.89395 -0.385407 -0.0434539
2732 2 -0.922194 -0.180576 -0.961336
772 1 -1.37171 -1.35097 -0.066617
2287 1 -0.571464 -0.919487 -0.44595
1057 1 0.283436 -0.545813 -0.667063
1536 1 0.167841 -1.24796 -0.22249
3314 2 1.55652 -0.417057 -0.479526
3361 2 1.12043 -1.09768 -1.13246
2190 1 3.07542 -0.745579 -0.946223
962 1 2.53129 -1.24812 -0.4745
880 1 2.83098 -0.0915191 -0.831385
1910 1 3.54766 -0.243005 -0.339724
952 1 4.16321 -0.53858 -1.15804
2938 2 4.27803 -1.2603 -0.165081
575 1 4.81776 -0.319804 -0.733802
914 1 5.45675 -0.843374 -0.236999
1874 1 5.13475 -1.31742 -0.930524
1932 1 6.29403 -1.02909 -0.5111
2112 1 6.75402 -0.72945 -0.0328185
353 1 6.94678 -1.38826 -0.976974
2099 1 -6.85698 -6.07302 0.656085
1070 1 -6.53276 -6.82304 0.0456701
2098 1 -6.20416 -6.21315 1.11681
2302 1 -5.22256 -5.81504 1.32339
1095 1 -5.50347 -6.33112 0.400165
3094 2 -5.52076 -6.94106 1.36535
2547 1 -4.81612 -6.80078 0.495723
813 1 -4.64985 -6.20177 0.832247
2642 1 -4.08598 -6.67967 1.14373