ITEM: TIMESTEP
0
ITEM: NUMBER OF ATOMS
3594
ITEM: BOX BOUNDS pp pp pp
-7.6159587617603197e+00 7.6159587617603197e+00
-7.6159587617603197e+00 7.6159587617603197e+00
-7.6159587617603197e+00 7.6159587617603197e+00
ITEM: ATOMS id type x y z
1726 1 -6.85417 -7.41239 -6.56971
2315 1 -6.93587 -6.94201 -7.46336
1669 1 -5.91653 -6.69891 -7.00598
1467 1 -5.14271 -7.02802 -6.80055
2975 2 -3.93987 -7.05872 -7.07116
3326 2 -4.43887 -6.623 -7.56228
3427 2 -3.24986 -7.5637 -6.40943
710 1 -3.24814 -6.52835 -7.22981
132 1 -2.07942 -7.29116 -6.87734
813 1 -0.192808 -6.38702 -7.25443
1540 1 -1.13157 -6.84052 -6.69878
2757 2 -0.310169 -7.37075 -6.88923
2811 2 -6.84668 -6.17821 -6.49243
1201 1 -6.79895 -5.34068 -7.44264
1202 1 -5.53962 -5.26898 -7.29443
1864 1 -6.02236 -5.83108 -7.48147
2673 1 -5.10319 -5.61744 -6.50959
1556 1 -4.46027 -5.28655 -7.18781
3163 2 -4.08258 -6.20695 -6.64906
2944 2 -3.40711 -5.32501 -6.46013
864 1 -2.76501 -6.06951 -6.75221
1862 1 -1.87891 -6.05255 -7.38357
896 1 -2.50981 -5.48351 -7.1083
2351 1 -1.66642 -5.97431 -6.58294
3008 2 -0.962635 -5.34576 -7.38848
229 1 -0.347977 -6.05799 -6.52115
1604 1 -7.20055 -4.96639 -6.55658
2779 2 -6.07767 -4.43564 -6.91255
3508 2 -4.21324 -4.07445 -7.4977
3526 2 -4.92871 -4.3887 -6.70063
1337 1 -3.43633 -4.33295 -6.90602
1278 1 -3.18924 -3.85225 -7.54007
1714 1 -2.24571 -4.73024 -7.45609
3192 2 -2.48111 -3.83439 -6.80787
215 1 -0.280685 -4.76625 -6.59319
2964 2 -1.08334 -4.25582 -7.11089
1977 1 -6.42699 -3.61764 -7.2886
2664 1 -7.23552 -3.20432 -7.17479
1169 1 -6.71079 -2.55457 -7.60503
466 1 -5.93941 -3.32878 -6.50223
1976 1 -5.24254 -3.58227 -7.23452
798 1 -3.84466 -3.41032 -6.48674
1992 1 -4.71047 -2.82972 -6.79724
551 1 -3.81988 -2.81255 -7.27171
2885 2 -2.77209 -2.62578 -6.95256
1221 1 -1.95552 -2.61386 -7.57761
1609 1 -1.62925 -3.27647 -7.20465
820 1 -1.79271 -2.84579 -6.42579
1220 1 -0.110809 -3.25473 -7.40965
309 1 -0.0852651 -2.59832 -6.47923
2960 2 -0.47609 -3.50124 -6.45073
747 1 -1.05282 -2.69621 -7.16815
3498 2 -7.54664 -2.2943 -6.64337
830 1 -6.65764 -1.84392 -7.18009
2467 1 -7.28502 -1.31904 -7.60759
2067 1 -5.92376 -2.37512 -6.88258
1596 1 -5.33694 -1.67659 -7.01955
313 1 -4.77717 -1.51667 -6.39049
1304 1 -4.3042 -2.2275 -6.50364
3256 2 -4.21664 -1.48088 -7.4503
2504 1 -3.22056 -1.28955 -6.76263
604 1 -2.61956 -1.59499 -6.48096
1374 1 -1.88045 -1.85112 -6.98055
1794 1 -0.948925 -1.87095 -7.04374
2176 1 -0.174033 -2.10185 -7.04982
1790 1 -0.861421 -2.49844 -6.4453
2 1 -6.38718 -1.18549 -7.33481
1494 1 -7.46123 -0.747103 -7.245
2241 1 -7.1927 -0.152096 -6.65791
706 1 -6.24866 -0.41391 -7.25848
2112 1 -5.64332 -1.02858 -7.53675
736 1 -5.53837 -0.0135437 -7.26345
1477 1 -5.30101 -0.767397 -6.5719
3101 2 -4.48619 -0.767812 -7.35334
610 1 -3.27282 -0.31399 -7.16602
758 1 -2.25083 -0.729496 -6.82774
1474 1 -0.210661 -0.88132 -7.30356
1855 1 -0.561136 -0.29868 -7.34092
189 1 -1.18394 -0.995413 -6.95085
271 1 -0.8399 -0.190195 -6.48515
1099 1 -6.45374 -7.35165 -5.08487
3268 2 -7.2317 -6.63038 -5.41301
1080 1 -5.4136 -7.1554 -5.14907
1370 1 -5.53388 -7.57295 -6.168
154 1 -4.92624 -6.49649 -6.10799
785 1 -4.28947 -6.91992 -5.28462
2931 2 -4.13896 -7.27243 -6.14262
3293 2 -2.68268 -7.6149 -6.1835
46 1 -3.63919 -6.65777 -5.45094
2655 1 -3.16466 -6.50758 -6.22867
924 1 -2.64506 -6.84212 -5.24288
2332 1 -3.54444 -7.30568 -5.19832
1119 1 -1.87457 -6.61303 -5.81326
303 1 -0.78539 -6.79623 -5.85788
1741 1 -6.72394 -5.66453 -5.51502
2297 1 -7.55441 -5.36756 -5.76239
1668 1 -5.86328 -5.47219 -6.02951
388 1 -5.87025 -6.29346 -5.43505
133 1 -6.06226 -5.34018 -5.10634
1451 1 -4.61538 -6.25869 -5.20981
2205 1 -4.13805 -5.68188 -5.78326
3499 2 -2.77898 -5.77239 -5.63188
3537 2 -3.38626 -5.70638 -5.2425
2414 1 -1.49145 -5.89506 -5.65426
395 1 -2.0272 -5.33728 -6.21423
124 1 -0.909299 -5.25047 -6.32698
909 1 -7.33646 -4.54895 -5.48416
1235 1 -6.44366 -4.65017 -5.83596
800 1 -6.8621 -4.04234 -5.29835
1756 1 -7.17534 -3.81934 -6.06394
1291 1 -5.58148 -4.20605 -5.75288
732 1 -4.51535 -3.93314 -5.23875
3339 2 -5.03455 -5.05091 -5.56712
2252 1 -3.98958 -4.55484 -5.91764
699 1 -2.69707 -4.69628 -6.30136
93 1 -3.71946 -4.86492 -5.12554
1807 1 -2.7266 -4.53095 -5.34565
2116 1 -2.0329 -4.87365 -5.1662
2821 2 -1.5311 -4.22514 -6.25891
965 1 -0.453368 -4.30715 -5.36298
2621 1 -1.25269 -4.92336 -5.41161
1906 1 -6.43718 -2.62979 -6.13646
324 1 -7.19408 -3.11291 -6.21038
40 1 -6.7566 -2.54476 -5.09624
1514 1 -6.22758 -3.79565 -5.78116
593 1 -5.74637 -3.33601 -5.09267
2864 2 -5.06916 -2.67316 -5.92572
1815 1 -4.6298 -3.50346 -6.2401
3300 2 -3.35178 -3.53663 -5.36167
1378 1 -2.75641 -2.7382 -5.32122
2945 2 -2.99535 -3.53146 -6.29579
2165 1 -2.12608 -3.48208 -5.26968
1341 1 -2.28011 -2.66959 -5.89651
1419 1 -1.84651 -2.87483 -5.24309
3055 2 -0.907379 -3.79471 -6.11392
1536 1 -1.06283 -3.23358 -5.28737
2429 1 -7.39129 -1.46541 -5.2152
3375 2 -7.13054 -2.0092 -6.09348
3347 2 -6.35181 -1.32458 -6.23935
1919 1 -6.61111 -1.30509 -5.17429
2559 1 -6.04168 -2.32152 -5.48062
1227 1 -5.30967 -1.38987 -5.67047
3471 2 -4.67371 -2.13557 -5.50607
2023 1 -3.44919 -2.38961 -6.09412
2329 1 -3.02353 -2.08821 -5.50901
2750 2 -2.08955 -1.6274 -5.14287
873 1 -2.02061 -1.98475 -6.1745
1730 1 -1.23012 -2.52623 -5.68116
2686 1 -0.378734 -2.53099 -5.53928
3208 2 -1.16804 -1.44214 -5.75941
3019 2 -0.447347 -1.40656 -6.08409
1527 1 -7.50911 -1.04607 -6.31734
847 1 -7.28441 -0.00065073 -5.55614
3514 2 -6.21458 -0.467567 -6.00075
406 1 -4.25033 -0.149142 -6.2141
1964 1 -4.12163 -1.04498 -6.20571
2965 2 -4.53986 -0.95415 -5.19033
35 1 -3.21348 -0.207307 -6.17765
1212 1 -3.59622 -1.11698 -5.72194
2099 1 -3.06934 -0.863865 -5.2707
334 1 -1.54413 -0.666238 -6.19611
3416 2 -1.75346 -0.642161 -5.09446
1094 1 -2.44725 -0.949869 -5.80976
2743 2 -0.107769 -0.611891 -6.00126
3068 2 -0.342636 -0.390066 -5.23225
3002 2 -6.59138 -6.42621 -4.74605
3428 2 -6.27368 -6.49785 -4.13057
357 1 -4.39919 -6.40589 -4.25803
1759 1 -4.72209 -7.37818 -4.54492
3135 2 -3.8318 -7.49226 -3.87872
3541 2 -2.10343 -6.52315 -3.82995
2588 1 -1.78643 -6.45952 -5.0397
217 1 -0.923486 -7.14305 -4.75793
49 1 -0.685722 -7.46834 -3.90118
1330 1 -0.688479 -6.59653 -4.18201
2175 1 -7.13039 -5.11431 -4.66987
3282 2 -6.78742 -5.79706 -3.96671
396 1 -5.75376 -5.55611 -4.29178
1372 1 -5.17024 -6.29484 -4.62908
3152 2 -4.77678 -5.4034 -4.9679
3236 2 -4.74244 -5.41392 -3.91413
3513 2 -2.68462 -5.67946 -4.29248
1054 1 -3.69835 -5.38379 -4.25068
1124 1 -1.64975 -5.23899 -4.47232
104 1 -1.23979 -5.78611 -4.97589
2914 2 -0.203835 -5.90079 -5.02137
727 1 -0.12723 -5.54659 -3.85532
2293 1 -0.898168 -5.88937 -4.04666
319 1 -7.59354 -4.01817 -4.3709
2783 2 -6.38512 -3.80872 -4.20541
1757 1 -6.97961 -4.89775 -3.88577
2625 1 -5.25009 -4.46354 -3.87964
751 1 -6.32106 -4.69827 -4.73595
1686 1 -5.40876 -4.58857 -4.86564
1760 1 -4.2841 -4.65706 -4.46777
1850 1 -3.99714 -3.85866 -4.24378
2287 1 -4.90652 -3.85467 -4.51976
2079 1 -3.38788 -4.3269 -4.60948
1177 1 -1.61362 -4.19024 -4.91278
3237 2 -2.46272 -4.48955 -4.26816
311 1 -1.5811 -4.0469 -3.91407
1289 1 -0.608673 -4.84079 -4.24841
1951 1 -7.31222 -3.12742 -4.63171
3558 2 -6.34322 -2.97502 -4.07602
2473 1 -5.56258 -2.58333 -4.71579
1752 1 -4.4605 -3.25154 -4.71761
1135 1 -3.14302 -3.38616 -4.35215
426 1 -2.43081 -3.07587 -4.43437
1633 1 -1.69443 -3.01274 -4.54058
2838 2 -0.37117 -2.91703 -4.01841
3228 2 -0.324258 -3.63598 -4.38975
2550 1 -6.52561 -1.60887 -4.57941
2398 1 -7.18391 -2.14276 -4.32446
1160 1 -5.62997 -1.88155 -4.61782
2339 1 -4.37733 -2.26414 -4.45955
3273 2 -4.68964 -1.2709 -4.48755
803 1 -3.97601 -1.74095 -4.03568
105 1 -5.01739 -2.40904 -4.03008
2668 1 -3.53005 -1.43819 -4.68036
1795 1 -3.53808 -2.34363 -4.66296
3102 2 -2.55261 -1.88762 -4.64836
611 1 -1.38553 -2.26114 -4.65425
801 1 -0.469142 -2.02034 -4.8497
234 1 -0.866454 -1.2893 -4.56998
1333 1 -6.50239 -0.387539 -4.95003
3220 2 -7.27414 -0.923198 -3.89783
2364 1 -7.37765 -0.140492 -4.76686
2208 1 -5.50279 -0.620684 -4.96757
162 1 -6.06698 -0.692678 -4.15317
1739 1 -3.83957 -0.603624 -4.68407
978 1 -4.17531 -0.168208 -4.23865
180 1 -3.02327 -0.172054 -4.91195
1552 1 -2.90627 -1.13261 -4.05991
1012 1 -2.92107 -0.0606865 -3.85453
2922 2 -1.47322 -0.10508 -4.30652
2457 1 -1.63733 -1.1997 -4.09484
2357 1 -2.34756 -0.661516 -3.86925
2735 2 -0.927882 -0.517646 -4.95685
1881 1 -0.0132403 -1.16624 -4.24234
767 1 -7.22911 -7.1884 -3.62056
2890 2 -6.88705 -7.0575 -2.56274
2021 1 -5.17908 -7.31666 -2.97141
1031 1 -6.08903 -7.0923 -3.35758
2266 1 -5.15906 -6.52604 -3.69801
1620 1 -4.3673 -6.83055 -3.28766
701 1 -4.06808 -7.42562 -2.77749
509 1 -2.86112 -7.11352 -3.4379
1664 1 -3.49497 -7.18895 -2.61327
2737 2 -1.7302 -7.26289 -3.46589
1875 1 -2.49538 -7.09928 -2.63582
640 1 -0.282054 -6.68405 -3.19652
853 1 -7.58472 -5.79415 -2.92672
221 1 -6.47605 -5.89246 -2.99913
3231 2 -7.03499 -6.24825 -3.59549
472 1 -5.75381 -5.71371 -3.58025
2285 1 -5.85681 -6.25024 -2.80286
29 1 -5.98114 -5.1877 -2.96239
3084 2 -4.49404 -5.45085 -3.16167
3468 2 -4.68407 -6.10056 -2.82677
2713 1 -2.67606 -6.34569 -3.04215
1421 1 -3.50727 -5.93193 -3.2586
208 1 -1.82234 -6.1056 -2.98205
2428 1 -1.55519 -5.22128 -3.25585
1163 1 -2.43634 -5.44789 -3.33071
3257 2 -0.529081 -5.23052 -2.82211
1626 1 -1.03046 -6.13538 -3.22332
2111 1 -7.54974 -3.86024 -3.69686
2160 1 -6.39645 -4.11398 -2.90178
239 1 -6.88343 -4.67294 -3.01142
1090 1 -6.10117 -4.86075 -3.63711
2410 1 -5.32384 -4.51085 -2.90003
1216 1 -4.17835 -4.43346 -3.48749
1072 1 -2.89347 -4.85209 -3.31243
2529 1 -3.70203 -3.81926 -3.0229
1766 1 -3.40754 -5.05943 -2.5846
2207 1 -2.87512 -4.04984 -3.45411
1123 1 -1.92738 -4.52989 -3.18395
1746 1 -0.759992 -3.98757 -3.15873
1979 1 -7.24106 -2.69115 -2.66842
1742 1 -7.09409 -3.46777 -3.14474
2253 1 -7.61432 -2.91596 -3.7576
2916 2 -6.02551 -3.48371 -3.79236
2800 2 -5.22068 -3.47906 -3.4671
1085 1 -6.16299 -3.01069 -2.64566
3446 2 -4.40684 -3.06728 -3.44257
3576 2 -3.71435 -2.9892 -3.5032
1810 1 -2.99788 -3.23412 -2.55697
2637 1 -1.51825 -2.88239 -3.80516
2296 1 -2.29924 -3.35666 -3.26763
3016 2 -1.53007 -3.35723 -2.59113
2075 1 -1.5054 -2.57273 -3.08866
446 1 -0.164859 -3.19111 -2.92004
2984 2 -6.63827 -2.34993 -3.25611
2581 1 -5.68096 -1.91335 -3.78127
1266 1 -5.15497 -2.08142 -3.10694
3272 2 -6.34508 -1.47324 -3.0014
2681 1 -4.11819 -1.7985 -3.32788
2724 1 -3.28289 -2.16369 -2.71456
3587 2 -3.0619 -2.45352 -3.60787
2133 1 -2.88406 -1.48229 -2.95375
2188 1 -1.98014 -1.79617 -3.65677
566 1 -2.45023 -2.39065 -2.87277
1414 1 -0.777591 -2.46737 -2.59085
2751 2 -0.503501 -1.91595 -3.58558
507 1 -0.67003 -1.72942 -2.57161
2680 1 -7.51354 -0.944041 -2.74575
2692 1 -6.70291 -0.4073 -2.96023
1605 1 -6.04148 -0.167157 -3.22763
665 1 -4.99305 -1.10108 -3.70281
3049 2 -3.82655 -1.00825 -3.57259
2159 1 -5.03461 -0.199817 -3.48521
2986 2 -3.73157 -0.467907 -2.97154
1035 1 -2.56665 -0.323642 -2.61562
2254 1 -1.6743 -1.138 -3.20028
763 1 -1.37863 -0.411545 -3.33205
2150 1 -0.774764 -0.0183748 -2.74355
1476 1 -0.573057 -0.619171 -3.71555
1603 1 -0.772511 -0.907368 -2.89332
945 1 -6.50971 -6.45962 -2.04301
3494 2 -5.24427 -6.64155 -1.93978
1366 1 -4.36269 -7.00359 -1.98016
3425 2 -3.02221 -7.24791 -1.34442
525 1 -3.75116 -6.48699 -2.26227
63 1 -1.85303 -6.90261 -2.45662
2882 2 -2.14624 -6.46494 -1.38902
1034 1 -1.68391 -7.47481 -1.88393
976 1 -0.858656 -6.70491 -1.39656
1775 1 -0.4576 -7.08805 -2.15976
2073 1 -0.986962 -6.41533 -2.11593
1809 1 -7.3919 -5.95112 -1.88792
1963 1 -7.02119 -5.5426 -2.31014
2256 1 -5.26558 -5.29488 -2.13083
641 1 -3.84256 -5.77008 -1.79149
1808 1 -4.59089 -5.83186 -1.65829
3017 2 -2.81667 -6.33654 -1.79549
354 1 -1.48034 -5.78029 -1.82604
3118 2 -2.25635 -5.58941 -2.27918
2754 2 -0.0430528 -5.6963 -2.45185
191 1 -0.439412 -5.97198 -1.60201
590 1 -7.49704 -4.71399 -2.11791
373 1 -5.56298 -3.90882 -2.29927
1118 1 -4.06742 -4.94587 -2.12945
1753 1 -4.16238 -4.04746 -2.38707
2586 1 -4.65085 -4.54992 -2.52149
2497 1 -4.92466 -3.94133 -1.51769
453 1 -3.18474 -4.05388 -2.30226
946 1 -2.17196 -4.47619 -2.35331
1359 1 -2.39265 -5.04402 -1.29767
1143 1 -1.3169 -4.4526 -2.41083
1943 1 -1.67818 -4.64152 -1.4011
330 1 -0.342257 -4.317 -2.46715
890 1 -0.256188 -4.92807 -1.47932
375 1 -1.05413 -4.99269 -1.70521
2847 2 -0.869133 -3.91867 -1.32983
3168 2 -6.95799 -3.69545 -1.90455
776 1 -7.60221 -2.72102 -1.33233
687 1 -5.72697 -3.66377 -1.38521
2243 1 -4.77442 -2.95332 -1.67696
950 1 -3.8201 -3.12114 -2.45496
458 1 -4.01126 -3.23136 -1.70133
2985 2 -4.8712 -3.29641 -2.53819
1269 1 -3.44216 -3.54877 -1.29642
2262 1 -2.18433 -3.80175 -1.53341
1228 1 -0.72156 -2.60683 -1.31698
3344 2 -1.19195 -3.39119 -1.92208
2203 1 -0.0751194 -3.39415 -2.00209
87 1 -7.08714 -1.97067 -2.06154
1617 1 -5.47417 -2.3379 -2.26376
982 1 -5.32087 -1.81675 -1.79664
1250 1 -5.62455 -1.29176 -2.31403
1495 1 -6.29066 -1.43534 -1.72236
2462 1 -4.36675 -2.12015 -2.3909
860 1 -4.21944 -2.24518 -1.57404
3034 2 -2.54019 -1.54444 -1.92252
602 1 -3.55446 -1.40488 -1.74585
2893 2 -3.03398 -2.40575 -1.82604
238 1 -1.51323 -1.94885 -2.52665
1639 1 -1.86986 -2.43978 -1.90496
483 1 -0.852609 -1.96842 -1.68419
1232 1 -0.119555 -2.51563 -1.8901
2019 1 -7.01086 -0.918046 -1.68647
2039 1 -6.3351 -0.300856 -1.57224
322 1 -5.47783 -1.03375 -1.59322
2718 1 -5.8091 -0.513602 -2.37926
3162 2 -4.5265 -1.12478 -1.58081
3483 2 -4.47298 -0.677197 -2.3897
171 1 -4.61829 -0.0659961 -1.29206
1083 1 -3.42036 -0.652964 -2.03596
3467 2 -2.00722 -0.988447 -1.66258
2651 1 -1.2612 -0.287129 -2.26286
1358 1 -0.317674 -1.08207 -2.11201
2648 1 -0.906966 -1.19296 -1.64766
3487 2 -7.25281 -6.80892 -0.988317
683 1 -5.39023 -7.33254 -1.1885
1711 1 -6.13817 -6.58826 -1.25162
443 1 -6.23835 -7.37467 -0.937766
2994 2 -5.38481 -6.44954 -0.467124
3351 2 -4.67817 -6.59147 -0.897097
2051 1 -2.62449 -6.74362 -0.34018
3459 2 -3.75796 -6.84852 -1.13918
3062 2 -3.66506 -7.145 -0.0357818
1253 1 -1.97076 -7.31164 -1.14459
1010 1 -1.72848 -7.19421 -0.409237
2523 1 -0.22381 -7.21399 -0.82173
3212 2 -0.749482 -6.42334 -0.245912
1206 1 -6.49147 -5.62114 -1.08594
2856 2 -7.34486 -6.11487 -0.637913
2331 1 -5.80512 -5.69558 -0.220293
1599 1 -5.28919 -5.40104 -1.06422
437 1 -4.19935 -5.73384 -0.470955
874 1 -3.45292 -5.22764 -1.22969
461 1 -3.16329 -6.17466 -0.641045
367 1 -2.86003 -5.6392 -1.0438
2377 1 -1.75829 -5.67031 -0.672694
2955 2 -0.0175087 -5.86073 -0.346486
2265 1 -0.926209 -5.61378 -0.973749
989 1 -7.11544 -4.75011 -1.18042
2962 2 -7.24662 -5.0017 -0.31642
3259 2 -6.27324 -4.47838 -0.386145
998 1 -5.42408 -4.69346 -1.07531
3280 2 -4.40246 -4.47812 -1.02961
2991 2 -4.6709 -4.0624 -0.382135
2789 2 -3.48787 -4.69465 -0.0167646
2910 2 -3.23347 -4.27928 -0.771008
2314 1 -2.17617 -3.83811 -0.578957
1428 1 -2.32079 -5.07459 -0.146585
1619 1 -1.40182 -4.69498 -0.578937
409 1 -0.620313 -4.66225 -0.542235
1748 1 -0.123766 -3.82172 -0.149487
1719 1 -6.78405 -3.70442 -0.66445
1011 1 -6.89354 -2.83271 -0.0284538
981 1 -5.79331 -3.17253 -0.836438
2451 1 -5.49877 -3.04206 -0.00956778
2471 1 -5.2126 -2.6058 -1.23411
1841 1 -4.48293 -2.67959 -0.268454
1573 1 -4.62591 -3.15656 -0.918882
113 1 -2.96493 -2.54234 -0.231083
1731 1 -2.58619 -3.02999 -0.943534
987 1 -3.71223 -3.33339 -0.284078
555 1 -3.72255 -2.72006 -1.0147
1052 1 -1.68225 -2.98521 -1.03135
3382 2 -1.32547 -3.48984 -0.109688
1869 1 -0.291083 -3.20092 -0.800559
3324 2 -6.61217 -2.49521 -1.11162
1301 1 -7.5755 -1.29495 -1.12887
852 1 -7.28822 -1.94542 -0.762484
2576 1 -6.16895 -1.85499 -0.0912525
1801 1 -5.43857 -1.28319 -0.27853
336 1 -4.55604 -1.87817 -0.413505
2110 1 -5.04588 -1.9992 -0.855813
3593 2 -2.66207 -1.83734 -0.878372
9 1 -3.55868 -1.55531 -0.830006
2077 1 -3.48926 -1.6676 -0.130565
1229 1 -1.49758 -1.35783 -0.903986
2706 1 -1.6323 -2.17761 -1.0511
2420 1 -1.06953 -2.18493 -0.298457
16 1 -0.200631 -1.95747 -0.536069
894 1 -0.703677 -1.64027 -1.06934
2072 1 -6.5904 -0.918911 -0.579026
1184 1 -7.20495 -0.0146145 -0.862682
1102 1 -5.12062 -0.188627 -0.981544
2525 1 -5.85215 -0.808181 -1.06398
3160 2 -3.97119 -0.19371 -0.0674284
3033 2 -4.43726 -0.667619 -0.618216
26 1 -3.20671 -0.828193 -0.00611812
1825 1 -3.31987 -0.775681 -1.03022
3572 2 -2.01279 -0.29291 -0.796136
2281 1 -2.37701 -1.19404 -0.275168
183 1 -1.01508 -0.316155 -1.14035
1546 1 -1.14474 -0.204613 -0.298515
1905 1 -0.79338 -1.17671 -0.184708
1125 1 -0.436638 -0.79069 -0.909115
1774 1 -6.54779 -6.81427 0.0637209
243 1 -7.23353 -7.05364 0.550541
2649 1 -6.35564 -7.52282 0.895874
3185 2 -5.77462 -6.46449 1.16387
3169 2 -5.54982 -6.9999 0.350264
2552 1 -4.40576 -6.50316 1.00604
2606 1 -4.44741 -7.11827 0.581244
1318 1 -2.71728 -7.03397 1.00595
432 1 -3.52845 -7.51243 1.07157
3475 2 -3.35329 -6.66546 0.481418
840 1 -1.61269 -7.05211 0.502549
884 1 -2.48601 -7.57026 0.290761
2730 1 -0.064437 -6.51923 0.591675
2605 1 -0.544864 -7.51137 1.02806
1698 1 -0.464212 -7.412 0.236464
1068 1 -6.92962 -6.0561 0.401767
627 1 -7.61317 -5.58561 0.814413
1829 1 -5.79019 -5.34931 0.53989
3430 2 -5.16136 -6.09997 0.928857
1205 1 -4.24776 -5.79517 0.442098
374 1 -5.00856 -5.61377 0.211359
3045 2 -2.55104 -5.8707 1.19333
2526 1 -3.61671 -6.07887 1.16274
1547 1 -3.07464 -5.82801 0.189778
1413 1 -3.13552 -5.27985 1.04094
1355 1 -1.89866 -5.38956 0.461279
528 1 -1.31374 -6.0501 0.488829
1876 1 -1.33351 -5.16171 0.172541
2024 1 -2.02568 -6.17994 0.0689709
2844 2 -0.657914 -5.86498 1.1776
992 1 -6.51108 -4.43963 0.684155
760 1 -7.27605 -4.59222 1.25538
397 1 -5.39689 -4.79027 1.25757
2819 2 -5.32081 -4.30885 0.13699
3030 2 -4.00195 -4.60052 0.456889
578 1 -2.96599 -4.16409 1.12703
317 1 -1.36922 -4.91233 0.957502
2441 1 -2.51979 -4.71672 0.641708
1328 1 -1.70222 -4.271 0.38764
919 1 -0.486915 -4.75383 0.331274
3561 2 -7.3305 -3.38154 0.723535
1062 1 -6.35563 -2.7605 0.816342
148 1 -6.41147 -3.50264 0.0681957
1522 1 -5.20567 -3.2341 0.778902
1660 1 -4.55026 -3.74839 1.12103
2769 2 -4.43288 -2.67573 0.849468
1736 1 -4.42577 -3.5917 0.332189
1198 1 -3.68471 -3.43493 0.634102
495 1 -3.62354 -2.71732 0.216565
2474 1 -2.56381 -2.98088 0.824413
907 1 -2.7017 -3.67836 0.00708548
942 1 -1.65858 -3.70812 0.972601
1014 1 -2.28884 -2.91665 0.0944343
2829 2 -1.32387 -2.68114 1.22089
705 1 -0.552062 -3.7216 0.919098
1489 1 -0.510047 -3.06037 0.522683
1443 1 -5.6441 -1.63801 0.891913
494 1 -4.16479 -1.6774 0.183781
1606 1 -3.25096 -2.12274 1.06046
1478 1 -3.70048 -1.45684 1.2062
497 1 -2.72716 -1.66464 0.537151
387 1 -2.11913 -2.01858 0.138904
1773 1 -0.304747 -2.28122 0.245009
247 1 -0.18914 -2.12012 1.05498
1861 1 -1.09276 -1.98765 0.385429
1174 1 -0.801869 -1.45544 1.1068
3209 2 -6.60756 -1.2059 1.26812
2131 1 -7.56671 -0.0885367 1.22495
2854 2 -7.1131 -0.930983 0.329034
1926 1 -5.93319 -0.0372181 0.116682
2584 1 -5.90245 -0.73983 0.572483
3550 2 -4.77543 -1.05557 1.15362
3165 2 -4.82889 -0.272347 0.442752
90 1 -3.52453 -0.812547 0.786684
2560 1 -2.54007 -0.63102 0.366005
1666 1 -3.12932 -0.289274 1.26168
1006 1 -1.34384 -0.10087 0.69312
1390 1 -1.8183 -1.07907 0.362682
2866 2 -0.0436742 -1.10588 0.0501526
2147 1 -0.685758 -0.656779 0.895324
1147 1 -0.270794 -0.0283415 1.25361
2815 2 -7.37118 -7.16038 1.77558
2093 1 -5.8371 -7.26745 2.29945
196 1 -6.13418 -6.62512 2.34114
845 1 -5.11273 -6.94154 2.12722
165 1 -4.88697 -7.20988 1.28707
320 1 -4.38557 -6.629 2.05367
887 1 -3.33024 -6.60374 1.85547
433 1 -2.51041 -6.4222 2.42928
2658 1 -2.18794 -7.00179 1.66952
1400 1 -1.20932 -7.21327 1.99039
283 1 -0.183379 -7.54716 2.44398
401 1 -7.1183 -5.39234 2.20359
3591 2 -6.63051 -6.337 1.60255
1356 1 -5.64674 -5.5189 2.15071
1710 1 -6.00999 -5.28821 1.49999
3548 2 -4.90655 -5.94941 1.59541
3481 2 -4.16991 -5.57788 1.99866
3422 2 -4.2398 -5.15222 1.42895
1435 1 -3.19681 -5.81195 2.0386
2235 1 -1.44748 -5.31663 2.46855
3036 2 -1.74832 -5.8064 1.57255
3489 2 -0.856997 -6.27606 1.73064
222 1 -6.83501 -4.61012 2.39695
2394 1 -6.7123 -4.86693 1.5101
511 1 -6.18008 -4.1213 1.98001
1065 1 -4.9314 -4.01585 1.66204
1680 1 -4.83124 -4.49983 2.32469
394 1 -2.62392 -4.92844 2.28927
211 1 -3.35238 -4.5415 1.71469
1288 1 -1.35692 -4.12948 2.15492
1433 1 -1.92251 -4.89561 1.63104
2825 2 -0.766138 -4.93581 1.76856
2711 1 -0.710024 -3.83084 1.68438
2209 1 -0.327962 -3.96533 2.22875
3113 2 -7.38317 -3.47749 1.35305
1900 1 -6.99426 -2.83228 2.47708
346 1 -6.448 -3.13239 1.84689
2270 1 -5.48928 -2.58493 1.52942
108 1 -5.92662 -3.5988 1.30857
1244 1 -5.93709 -2.72826 2.3902
3440 2 -4.7966 -2.93506 2.27089
1105 1 -3.93606 -3.64721 1.93219
933 1 -3.67392 -2.86792 1.77802
3182 2 -2.72942 -3.30589 1.99259
3544 2 -2.15135 -3.75925 1.66909
1274 1 -6.77224 -1.76828 2.43459
2114 1 -7.61445 -1.61687 2.35664
2017 1 -7.17947 -2.22708 1.30051
1650 1 -5.63777 -1.6403 1.82193
3092 2 -4.60459 -2.09897 1.37066
2419 1 -4.007 -1.67451 2.21205
1688 1 -2.78258 -1.71553 2.07847
888 1 -2.88378 -2.46637 1.93251
3445 2 -1.85668 -2.04086 1.33333
139 1 -1.41635 -2.23957 2.40396
1059 1 -2.14069 -1.94022 2.41307
506 1 -0.899792 -1.68152 2.12159
345 1 -6.47512 -0.382858 2.52546
1459 1 -6.8117 -0.278152 1.82535
316 1 -5.67859 -0.845665 2.35188
1613 1 -5.70593 -0.283029 1.61621
2954 2 -4.48409 -0.582799 1.81488
1436 1 -3.31687 -0.894391 2.25472
2972 2 -2.50501 -1.14489 1.29164
3076 2 -1.91764 -0.768469 2.38867
958 1 -0.318159 -0.420896 2.11049
3448 2 -1.21066 -0.907414 1.91969
2946 2 -6.37392 -7.51328 3.56441
1567 1 -7.10656 -7.32684 2.60395
835 1 -7.28579 -6.39126 2.57124
3043 2 -6.4482 -6.84449 3.25286
990 1 -7.38965 -6.77402 3.76511
1904 1 -5.18542 -6.78697 2.9245
2503 1 -5.4172 -7.55519 3.31957
2267 1 -4.06849 -7.16974 3.09606
934 1 -3.34949 -6.85737 2.60008
1675 1 -3.3012 -6.85836 3.41866
3230 2 -1.61453 -7.1921 3.72925
1154 1 -1.86437 -6.86028 2.54963
1388 1 -2.2212 -6.59291 3.31984
1629 1 -0.531656 -7.07167 3.05549
2996 2 -6.56964 -5.94403 3.35925
862 1 -7.24366 -5.36193 3.08537
1380 1 -5.5231 -6.03177 3.26731
3594 2 -4.74857 -5.26934 2.91482
2792 2 -4.30946 -5.8278 2.82395
3271 2 -3.50955 -5.94437 2.91786
2798 2 -2.90674 -5.56349 3.09484
1917 1 -1.72972 -6.1066 2.79029
1434 1 -1.29068 -5.68131 3.26873
2280 1 -2.17311 -5.92336 3.7544
707 1 -0.600105 -5.47227 2.63519
1814 1 -0.786032 -6.29949 3.78223
1265 1 -0.422038 -6.21994 2.7024
2929 2 -0.0777976 -5.43443 3.6687
1000 1 -7.31085 -4.39098 3.12879
1847 1 -5.58138 -4.12666 2.5974
2886 2 -5.15926 -4.84009 3.48175
3408 2 -5.95394 -5.05661 2.90354
980 1 -5.82113 -3.96196 3.7339
2353 1 -4.179 -4.68338 3.36595
2195 1 -4.47053 -4.1237 2.98975
698 1 -3.7359 -4.72963 2.74261
1138 1 -3.63742 -3.89742 2.58329
3457 2 -2.75612 -4.63296 3.54393
3006 2 -2.53703 -3.97632 2.78945
469 1 -1.95756 -4.76407 2.76137
2274 1 -1.68282 -4.95079 3.53508
1702 1 -1.03402 -4.36923 3.08573
3022 2 -6.62379 -3.21779 3.49998
1755 1 -7.60917 -3.66763 2.83772
2640 1 -5.41521 -2.8154 3.20872
2326 1 -4.0323 -3.38851 2.89435
71 1 -4.23919 -3.07619 3.55921
3029 2 -2.99384 -3.33722 3.47887
2761 2 -3.3832 -2.59401 3.0445
2102 1 -1.55184 -3.68503 3.40989
265 1 -2.17247 -2.66465 2.71236
802 1 -1.56435 -3.32535 2.71697
599 1 -0.482251 -3.70253 3.03219
3519 2 -6.76978 -2.22432 3.36094
3538 2 -5.1398 -1.39937 3.74691
1693 1 -5.89389 -1.94963 2.69328
2490 1 -4.95916 -1.4933 2.66142
1325 1 -2.63293 -1.46489 3.55579
1543 1 -3.68541 -1.657 3.74988
2682 1 -1.80496 -2.45953 3.35176
1712 1 -1.66946 -1.42256 3.23664
580 1 -1.07753 -2.11125 3.69496
473 1 -0.779266 -2.52318 3.25009
2349 1 -0.501887 -1.4339 2.87025
2670 1 -7.19177 -0.163613 3.12061
3048 2 -6.44197 -0.874225 3.32705
2491 1 -7.20749 -0.8627 2.63229
3345 2 -5.59794 -0.469823 3.5342
1007 1 -4.3994 -0.376521 3.44863
2341 1 -4.09504 -0.942516 3.02786
2020 1 -3.91071 -0.081322 2.8428
588 1 -4.86848 -0.540208 2.71974
198 1 -1.34789 -0.564827 3.30182
2202 1 -0.14222 -0.848377 3.62303
358 1 -0.599821 -0.284447 3.03606
1703 1 -7.03182 -7.29006 4.23058
1423 1 -7.34633 -7.48761 4.86607
2391 1 -5.31575 -7.12581 3.97935
775 1 -6.1129 -6.49484 4.48639
2071 1 -6.17055 -7.2434 4.67466
3154 2 -4.4037 -7.36913 5.06629
2851 2 -4.29003 -6.87576 3.94242
2795 2 -4.57505 -6.6816 4.9755
1628 1 -3.24128 -6.86075 4.52212
1331 1 -2.83792 -7.48772 4.77305
2691 1 -2.66224 -7.01655 4.03109
3480 2 -1.78226 -6.87072 4.53589
212 1 -0.536923 -7.12668 4.16238
2214 1 -0.841845 -7.21572 4.87026
3193 2 -6.90373 -6.14975 5.00953
3277 2 -6.70921 -5.18917 4.94152
671 1 -7.24108 -5.93796 4.12797
307 1 -6.24242 -5.58421 4.09767
857 1 -5.31532 -6.31459 4.3823
571 1 -4.88452 -5.69737 3.98439
1524 1 -4.5461 -5.72103 4.84339
558 1 -3.98949 -5.319 3.88099
1550 1 -2.68794 -5.3297 4.58779
2704 1 -3.13808 -5.95793 4.238
1583 1 -3.55297 -5.67266 4.79791
3270 2 -1.3562 -5.40078 4.87628
3210 2 -2.31849 -6.33105 4.93436
1709 1 -0.623556 -6.31895 4.51954
3213 2 -0.323005 -5.13658 4.79245
2030 1 -7.41006 -3.96114 4.12918
2373 1 -7.09339 -5.00891 4.05502
270 1 -6.30405 -4.54264 4.1149
780 1 -4.13221 -4.23181 4.09142
2770 2 -4.98364 -4.46897 4.6933
1708 1 -3.48666 -4.4796 4.402
482 1 -2.7299 -4.04136 4.68195
2108 1 -1.61337 -4.19686 4.33515
1822 1 -2.1646 -4.63368 4.91737
2172 1 -1.42412 -4.23779 5.07005
2723 1 -0.79973 -3.85265 3.95336
3311 2 -0.716642 -4.91041 4.06297
3027 2 -6.73607 -3.14929 4.45003
2363 1 -5.36306 -2.97691 4.07012
2855 2 -5.32585 -3.61951 4.84892
617 1 -4.7084 -3.56913 3.85647
2092 1 -4.1858 -3.17434 4.38179
1465 1 -3.22987 -3.0911 4.97407
2883 2 -1.45794 -2.97331 4.19854
3444 2 -2.09202 -3.37795 4.33695
1996 1 -0.50004 -2.71598 4.91616
1399 1 -0.103378 -3.67659 4.81686
1704 1 -6.72168 -1.83166 4.14333
1151 1 -7.01783 -2.21224 4.98338
2354 1 -5.82679 -2.11511 3.94501
1564 1 -5.79675 -2.14511 4.83696
2288 1 -6.26235 -1.31781 4.20765
3370 2 -4.77862 -2.45686 4.9219
647 1 -3.94505 -2.51704 4.10944
932 1 -3.35321 -2.23585 4.50199
3221 2 -1.2972 -2.24986 4.6689
123 1 -2.41429 -2.36654 4.14727
1472 1 -0.131456 -1.66596 3.93203
1150 1 -0.0591645 -1.8623 4.7274
955 1 -0.126476 -2.51651 3.9308
1164 1 -1.03668 -1.30775 4.00662
3439 2 -7.15367 -0.772173 4.86156
384 1 -5.37993 -0.580146 4.54784
750 1 -6.06802 -0.519871 4.78062
917 1 -4.74654 -1.16103 4.71646
2337 1 -4.71039 -0.218317 4.15964
2477 1 -4.10427 -0.379302 4.5001
1262 1 -3.4797 -0.575648 4.01578
856 1 -2.60908 -0.374265 3.95508
3325 2 -2.78236 -1.25617 4.88591
1523 1 -1.99886 -1.19559 4.21175
1990 1 -2.13091 -0.0224958 4.32045
3047 2 -0.95259 -0.397699 4.18039
3266 2 -0.0824518 -0.711919 4.6493
596 1 -1.04003 -1.21196 4.98875
3278 2 -6.95814 -7.02965 5.56526
2340 1 -5.65124 -6.87949 5.19358
849 1 -5.87954 -6.7616 5.93415
2016 1 -5.12459 -6.51785 5.63208
1089 1 -4.84647 -6.88704 6.16947
365 1 -3.16299 -7.44613 5.32703
1787 1 -1.62276 -6.47505 6.00827
2940 2 -1.88039 -7.03411 5.28086
1056 1 -0.512467 -7.49333 5.45848
2449 1 -0.0177439 -7.59395 6.03211
1713 1 -0.911151 -7.07874 5.99225
3060 2 -7.34943 -5.66733 5.43331
1889 1 -5.94725 -6.01098 5.18835
667 1 -5.25456 -5.64502 5.36984
1255 1 -6.26871 -5.82782 5.82088
2639 1 -6.04661 -5.08084 5.58366
1581 1 -4.38972 -6.19326 5.86889
2543 1 -4.28828 -5.10903 5.79228
2925 2 -3.02713 -5.10986 5.6182
1223 1 -1.96706 -5.79348 6.26057
74 1 -2.14612 -5.45547 5.56245
417 1 -1.11196 -5.28855 6.06034
1176 1 -0.854331 -6.11491 5.51285
114 1 -7.61506 -4.62928 5.96609
1720 1 -6.49377 -4.16023 5.30911
861 1 -7.33764 -4.20131 5.14604
2346 1 -6.61141 -4.77808 6.07936
2417 1 -5.71828 -4.24362 5.84092
517 1 -3.84546 -3.91105 5.2602
3409 2 -2.62577 -4.0068 5.73618
543 1 -1.66171 -4.67828 5.65054
1934 1 -2.04584 -4.72741 6.33791
3419 2 -0.320204 -4.48239 5.47015
488 1 -0.964384 -4.02654 6.02391
3241 2 -7.27119 -3.19842 5.19777
3376 2 -7.07637 -3.3586 6.01882
1778 1 -5.96236 -3.0507 5.62189
1970 1 -4.89498 -3.62202 5.94462
2323 1 -4.71951 -2.94461 6.07995
1136 1 -3.69663 -3.40806 6.01249
2415 1 -3.04817 -2.92553 6.29918
2867 2 -1.74593 -2.99271 5.11465
3493 2 -2.02259 -3.43846 5.74977
734 1 -1.34724 -2.62389 6.2369
773 1 -0.803724 -3.57446 5.20681
1070 1 -0.0101731 -2.71389 5.49495
1673 1 -0.639818 -3.08727 6.0326
233 1 -6.68335 -2.41236 5.97459
2411 1 -7.40071 -1.83963 6.0597
3200 2 -6.47166 -1.45589 5.52965
2540 1 -5.36514 -2.37676 5.95365
1690 1 -4.86814 -1.81662 5.81579
3394 2 -4.06849 -2.46859 5.46149
3437 2 -4.11991 -2.01047 6.32537
1377 1 -3.14048 -1.75118 6.32963
2186 1 -2.55824 -2.20491 5.38229
3242 2 -3.73555 -1.67827 5.46911
439 1 -1.76318 -1.70312 5.7384
2484 1 -0.795526 -1.45767 5.81514
2185 1 -6.98885 -0.919984 6.28048
1183 1 -6.18553 -0.334744 5.92657
1242 1 -5.54137 -0.862002 6.19512
184 1 -5.49315 -1.22006 5.41277
1586 1 -3.97271 -0.379293 5.45021
1927 1 -5.06247 -0.273399 5.42092
2036 1 -4.48096 -0.942517 5.7847
68 1 -3.04965 -0.256833 5.33344
1338 1 -2.90066 -1.08048 5.96592
293 1 -3.67734 -0.72988 6.14444
589 1 -1.44619 -0.682289 6.2428
2575 1 -0.416868 -0.656202 6.28028
440 1 -0.965205 -0.46191 5.56119
842 1 -7.36601 -6.46698 6.56177
1322 1 -6.72601 -6.92488 6.72036
100 1 -5.43442 -6.43006 7.5076
362 1 -5.72005 -7.2509 6.56175
2684 1 -5.87789 -7.24541 7.418
872 1 -4.26328 -7.48304 7.10824
1182 1 -4.77577 -7.09863 6.83227
363 1 -4.12467 -7.17234 6.39349
1456 1 -3.26892 -6.692 7.02375
112 1 -2.70191 -6.62415 6.39184
1064 1 -2.50451 -7.06844 7.40918
3421 2 -1.64038 -6.76918 7.26217
2381 1 -1.44788 -7.4645 6.56714
3332 2 -0.359475 -7.15011 7.2452
3527 2 -0.209505 -6.57415 6.55214
1534 1 -6.9806 -6.12192 7.45139
2100 1 -7.11716 -5.60278 6.44895
2180 1 -6.38869 -5.09602 6.79151
3549 2 -5.43577 -5.40992 6.38288
3412 2 -5.13925 -5.94314 6.65487
3204 2 -6.01408 -5.92919 6.74136
2817 2 -4.65801 -5.54458 7.17169
2059 1 -3.71736 -5.9975 6.41369
2741 2 -2.99068 -5.3019 6.67334
2305 1 -3.53104 -5.83913 7.59587
1267 1 -1.89247 -5.10321 7.13916
2715 1 -2.51989 -6.16437 7.19197
54 1 -1.23593 -5.70439 6.81515
883 1 -0.240095 -5.3433 6.8199
634 1 -7.2412 -4.42976 7.58267
2117 1 -7.29981 -4.83989 6.86152
178 1 -6.11545 -4.32202 7.30072
197 1 -5.89676 -4.34702 6.50891
398 1 -5.27515 -4.74856 7.3795
1383 1 -4.11087 -4.86192 6.62213
810 1 -4.99022 -4.2545 6.72125
455 1 -3.20309 -4.97263 7.58311
1055 1 -3.25348 -4.12432 6.54157
143 1 -2.5287 -4.2268 6.95619
1888 1 -0.00697353 -4.35495 7.55403
2536 1 -1.22695 -4.68279 6.89245
598 1 -0.331411 -4.28568 6.70662
2943 2 -7.09602 -3.7614 6.62594
818 1 -6.23825 -2.75833 6.8723
118 1 -5.16334 -2.57653 7.47291
2370 1 -4.01948 -3.66857 6.83034