ITEM: TIMESTEP
0
ITEM: NUMBER OF ATOMS
3594
ITEM: BOX BOUNDS pp pp pp
-7.3969176239395678e+00 7.3969176239395678e+00
-7.3969176239395678e+00 7.3969176239395678e+00
-7.3969176239395678e+00 7.3969176239395678e+00
ITEM: ATOMS id type x y z
770 1 -6.86283 -6.72504 -6.67398
3066 2 -6.05164 -5.99211 -7.22565
1127 1 -6.43578 -6.22498 -6.07246
1403 1 -5.10804 -6.79193 -6.74853
224 1 -4.84097 -6.1454 -6.83384
596 1 -5.80326 -6.97278 -6.54343
2197 1 -3.98581 -6.46207 -6.97575
404 1 -2.98641 -7.21668 -6.73938
352 1 -3.0512 -6.32495 -6.28257
1397 1 -3.59001 -7.02816 -5.88054
816 1 -2.07857 -7.0209 -6.42774
1097 1 -1.72215 -7.10395 -7.36986
830 1 -2.78114 -6.96126 -7.33139
262 1 -0.525264 -7.23225 -6.99487
978 1 -1.16159 -7.35518 -6.39914
20 1 -0.475276 -6.50239 -6.83126
2201 1 -1.44703 -6.31932 -6.66979
355 1 -6.06442 -4.88281 -6.95237
3270 2 -7.07911 -4.59056 -7.01767
1626 1 -6.63595 -5.25563 -6.38843
481 1 -6.21754 -4.48538 -6.376
3044 2 -5.54809 -5.62673 -6.46405
2775 2 -4.93104 -4.8612 -6.13192
1313 1 -4.1617 -5.21957 -7.31046
3246 2 -3.88618 -5.35663 -6.4063
2045 1 -2.9601 -5.00894 -5.81046
2134 1 -3.17557 -5.60421 -7.08614
1347 1 -3.68097 -4.51846 -5.87215
2918 2 -2.43301 -4.6979 -7.10646
2014 1 -1.65524 -4.72974 -5.89416
701 1 -1.64528 -5.48427 -6.73059
945 1 -2.57358 -5.75833 -6.45061
2125 1 -0.915387 -5.32359 -5.97268
2621 1 -0.674804 -5.61345 -6.67272
3161 2 -1.39139 -4.45804 -7.13501
1483 1 -6.06346 -2.9809 -7.27477
3352 2 -6.90544 -3.5714 -7.15875
2442 1 -6.24586 -3.00221 -6.38696
2522 1 -5.45078 -3.86584 -6.15833
376 1 -5.85503 -3.97942 -7.10499
3008 2 -4.45844 -3.84194 -7.17082
3034 2 -4.7209 -4.41384 -6.69329
899 1 -5.50741 -3.15358 -6.75957
2168 1 -3.5454 -3.03152 -5.99277
2336 1 -3.31004 -3.24165 -6.82682
205 1 -1.88843 -3.80089 -6.39743
3354 2 -2.84216 -4.13028 -6.31744
1519 1 -2.48454 -2.9992 -6.1719
2600 1 -1.77883 -3.0971 -6.34989
3392 2 -0.784751 -4.1974 -6.31226
2847 2 -0.767073 -4.40657 -7.26841
2240 1 -0.962169 -3.04933 -6.60788
3498 2 -0.0796451 -3.65111 -5.83294
309 1 -7.13077 -2.65179 -6.06144
1161 1 -6.31631 -2.31736 -6.9148
1814 1 -7.15048 -2.18578 -6.88326
2819 2 -6.10448 -1.89742 -6.23013
1918 1 -4.83834 -2.00873 -6.09024
26 1 -5.30799 -2.54073 -6.55086
998 1 -5.37707 -1.75438 -6.94653
2431 1 -4.24312 -1.69087 -6.64319
2758 2 -4.3654 -2.85988 -6.92936
824 1 -3.38395 -1.92861 -7.28551
3486 2 -3.4563 -1.84243 -5.82333
3062 2 -2.47024 -2.1733 -6.71733
3337 2 -2.4115 -1.87863 -5.93803
2952 2 -1.66313 -2.04808 -6.51107
2367 1 -0.607518 -2.136 -5.80349
2732 2 -0.724458 -1.50733 -6.68104
1279 1 -0.483324 -2.41486 -6.97337
3155 2 -6.82515 -1.05169 -6.72336
2927 2 -5.7947 -0.979065 -6.00565
463 1 -4.98976 -1.06121 -6.71247
915 1 -5.50556 -0.541721 -7.11198
1690 1 -5.35587 -0.00142641 -6.3593
2260 1 -4.29055 -0.589082 -6.26448
3588 2 -4.01421 -0.0706074 -7.29632
2118 1 -3.45236 -0.969597 -6.24456
2345 1 -3.41126 -1.13957 -7.27413
697 1 -2.60773 -1.01746 -7.35672
67 1 -1.63721 -0.982144 -5.85539
2107 1 -2.67342 -0.943269 -6.40994
2364 1 -1.97446 -0.813574 -6.72998
2704 1 -2.75993 -0.330355 -5.90524
1548 1 -2.46573 -0.1303 -7.03672
2114 1 -0.93615 -0.40275 -6.65276
3552 2 -0.757842 -1.21154 -7.36228
1151 1 -0.101529 -0.627384 -6.04621
1699 1 -6.54959 -6.97633 -4.76102
2132 1 -7.29613 -6.15183 -5.71438
267 1 -5.97973 -6.27149 -5.34043
108 1 -6.86305 -6.34597 -4.97578
258 1 -6.43517 -7.06859 -5.66636
2303 1 -5.30902 -6.64542 -5.72692
1026 1 -4.7456 -7.11249 -4.20774
1780 1 -5.06939 -6.07313 -5.19571
584 1 -5.01619 -6.23087 -4.40822
710 1 -5.49706 -7.27512 -5.0239
160 1 -4.74486 -6.91691 -5.09768
2378 1 -4.15496 -6.4733 -5.62965
2649 1 -3.17287 -5.9772 -5.23811
3036 2 -3.33936 -6.91771 -4.7027
3002 2 -2.04681 -6.10526 -5.60391
725 1 -1.88153 -7.08373 -4.33392
2245 1 -2.20584 -6.17354 -4.40215
3424 2 -2.67938 -6.98104 -5.18082
1324 1 -1.259 -6.84783 -4.71501
2084 1 -1.13826 -6.27019 -5.69601
2103 1 -1.14239 -7.3461 -5.63779
1868 1 -0.460705 -6.70755 -4.79541
2906 2 -6.4305 -5.31571 -4.97794
3438 2 -5.95125 -5.43255 -4.51332
53 1 -7.35895 -5.90254 -4.13683
1929 1 -7.17777 -5.2628 -5.59655
841 1 -5.33476 -4.64281 -4.3204
1680 1 -4.5173 -5.50007 -5.24803
238 1 -5.05267 -5.39751 -4.38863
3445 2 -5.66337 -5.258 -5.64148
85 1 -4.56702 -4.65569 -4.80821
3374 2 -3.84258 -5.90323 -4.46377
1350 1 -4.14319 -4.80993 -5.33291
1523 1 -3.73074 -5.60246 -5.5501
3139 2 -3.96221 -5.03807 -4.31077
1704 1 -3.11462 -5.06082 -5.00081
819 1 -2.77197 -5.58941 -4.76677
2214 1 -2.48392 -4.84885 -4.19403
133 1 -2.09045 -4.82293 -4.92597
2266 1 -1.43408 -4.78978 -4.38963
1481 1 -1.35883 -5.28635 -5.14347
151 1 -0.720867 -4.74122 -5.16643
3179 2 -0.224556 -5.60253 -4.8177
538 1 -1.1402 -5.7926 -4.44459
3382 2 -0.117919 -5.71856 -5.5527
2389 1 -6.17818 -4.16756 -4.70939
1610 1 -7.10434 -4.18178 -5.23728
890 1 -6.40158 -3.94696 -5.71456
635 1 -7.28729 -4.29172 -4.28037
1267 1 -7.28855 -3.19983 -5.39467
2692 1 -7.03034 -3.50558 -4.74054
910 1 -6.27586 -3.4035 -4.32577
570 1 -5.26761 -4.33153 -5.07865
320 1 -4.74816 -4.10192 -5.42006
165 1 -4.64828 -3.25608 -5.73998
2925 2 -5.63928 -3.22411 -5.18788
211 1 -4.22997 -3.59729 -4.90533
2561 1 -3.8407 -3.61306 -5.69302
3012 2 -3.46449 -4.19641 -4.70134
1716 1 -1.65345 -4.16714 -4.19678
3316 2 -2.54309 -3.92335 -5.47665
3085 2 -2.70647 -4.00141 -4.8511
2029 1 -1.63679 -3.10328 -4.4862
46 1 -1.80898 -2.9634 -5.49669
3114 2 -2.86268 -3.29322 -4.37915
1634 1 -2.95392 -3.00474 -5.48742
2490 1 -0.570836 -3.93327 -4.98224
2518 1 -1.42969 -4.10455 -5.33612
643 1 -0.00348037 -4.23917 -4.46362
11 1 -0.842018 -3.60394 -4.443
2769 2 -0.0664052 -2.96251 -4.88676
3203 2 -0.79591 -3.11181 -5.45007
994 1 -6.66091 -2.09544 -4.78803
3319 2 -6.11286 -2.72901 -5.40363
2645 1 -7.34359 -1.73019 -5.62975
2357 1 -6.25182 -2.52898 -4.25906
126 1 -6.22194 -1.70422 -4.47998
1073 1 -6.25274 -1.59128 -5.3265
1696 1 -4.57073 -1.66494 -4.67676
349 1 -5.26829 -2.28224 -4.23854
1346 1 -5.29101 -1.78032 -5.10783
13 1 -4.90186 -2.94688 -4.45189
124 1 -4.35258 -2.3485 -5.26658
332 1 -3.86833 -2.76798 -4.58688
2482 1 -3.12736 -2.22651 -4.88303
1099 1 -1.55315 -2.32577 -4.51192
1909 1 -2.80275 -1.65481 -4.38604
2457 1 -2.32644 -2.01522 -4.81641
1807 1 -0.545044 -2.00956 -4.82691
103 1 -1.24817 -2.08226 -5.22673
3024 2 -6.88556 -0.427194 -4.18952
2660 1 -6.82745 -1.10748 -5.1083
3078 2 -7.32144 -1.47391 -4.25778
2231 1 -4.78609 -0.236051 -5.68167
1377 1 -4.63459 -1.14638 -5.65509
1437 1 -4.96558 -0.403334 -4.99173
230 1 -4.70863 -0.953198 -4.39992
974 1 -5.37971 -0.0731299 -4.37654
1110 1 -5.4905 -0.936512 -4.67831
2989 2 -3.88906 -0.451748 -4.45518
3171 2 -3.61138 -1.31082 -5.1028
2743 2 -3.56399 -0.530829 -5.2443
1713 1 -2.40031 -0.928367 -4.78533
1885 1 -2.86688 -0.951888 -4.13126
1214 1 -1.82396 -0.25397 -5.23894
1977 1 -2.63965 -1.01813 -5.46651
1413 1 -2.06597 -0.13403 -4.48533
3225 2 -0.915792 -0.615732 -4.73546
2728 1 -0.117523 -1.39864 -4.51273
1740 1 -0.778026 -1.302 -5.63489
2157 1 -1.03329 -0.18106 -5.71628
2929 2 -1.36138 -1.26077 -4.61525
2880 2 -0.0955631 -0.144282 -4.64331
2609 1 -7.00717 -6.7605 -3.87787
2752 2 -7.13307 -7.35561 -2.69336
3475 2 -6.30983 -7.20098 -3.31246
1751 1 -6.97935 -6.37481 -2.88943
2937 2 -5.90268 -7.25163 -4.09289
321 1 -5.77949 -6.20539 -2.84305
1882 1 -5.35766 -6.83425 -3.06169
261 1 -5.15319 -6.25294 -3.38216
1547 1 -4.16381 -6.56201 -2.8361
2777 2 -3.69184 -6.79509 -3.77418
914 1 -3.08022 -7.29605 -3.105
2120 1 -1.9579 -6.89891 -2.66941
516 1 -2.24604 -7.19285 -3.57692
586 1 -2.60381 -6.36432 -2.47845
1732 1 -2.7494 -6.42459 -3.666
1787 1 -1.41829 -6.69821 -3.834
1020 1 -0.597022 -6.2208 -3.8122
2885 2 -1.44023 -5.99376 -2.84695
1943 1 -1.03676 -6.93245 -3.03981
306 1 -0.082916 -6.70801 -2.88016
3510 2 -6.41802 -4.93697 -4.02442
1474 1 -7.24784 -5.18454 -3.27928
1340 1 -6.897 -4.5188 -2.67586
2356 1 -6.60839 -5.657 -3.20441
2423 1 -5.55551 -5.23103 -2.90745
406 1 -4.50347 -5.5472 -3.42958
1817 1 -5.16911 -4.81873 -3.31122
1556 1 -5.86404 -5.84194 -3.62476
3120 2 -4.30957 -5.26924 -2.49479
2131 1 -4.22815 -4.49526 -3.08549
2603 1 -3.04299 -5.63581 -3.91084
1106 1 -3.28986 -4.80231 -3.52116
989 1 -3.57108 -5.90589 -3.24894
192 1 -2.89445 -5.50978 -2.9421
939 1 -2.15376 -5.29718 -2.48129
718 1 -1.94115 -4.46229 -3.29884
3456 2 -1.89437 -5.80864 -3.44775
77 1 -0.740444 -5.01251 -3.92045
147 1 -0.499019 -4.87678 -2.82722
1981 1 -1.37304 -4.88219 -2.88762
1139 1 -0.328786 -5.60911 -3.27832
2962 2 -6.12205 -4.37593 -3.39401
2977 2 -6.3332 -3.76442 -3.27321
1773 1 -7.34727 -4.35748 -3.42369
3379 2 -7.10182 -3.11651 -3.74562
849 1 -5.10011 -3.86915 -4.05386
2256 1 -4.86683 -4.00996 -2.74808
3059 2 -5.89681 -3.85424 -2.59461
512 1 -4.51538 -4.29385 -3.66188
1777 1 -5.18142 -3.29607 -3.05988
1498 1 -4.05959 -3.49901 -4.10908
765 1 -4.2763 -3.46012 -3.07382
1155 1 -3.50572 -3.86694 -2.83845
885 1 -3.64627 -3.94657 -3.53244
1265 1 -3.1168 -3.44377 -2.64949
1692 1 -2.60794 -4.1698 -3.86394
1341 1 -2.52373 -3.78979 -3.19019
1435 1 -2.41258 -2.98192 -2.90679
716 1 -1.7329 -3.27421 -3.63801
2488 1 -0.448472 -4.25324 -3.76087
3402 2 -0.554054 -3.38171 -2.47836
855 1 -0.375981 -3.18154 -3.55513
3450 2 -1.08751 -3.67996 -3.10778
3329 2 -7.37492 -2.49987 -4.09112
1429 1 -6.34787 -2.53265 -3.01628
2086 1 -6.43662 -1.87354 -3.50451
2874 2 -5.14536 -1.8601 -3.43413
3553 2 -5.10659 -2.28314 -2.53921
1440 1 -5.7174 -2.94445 -3.48768
1515 1 -4.5266 -2.86828 -3.65677
613 1 -3.71113 -2.13344 -3.96892
517 1 -4.2209 -2.48929 -3.09995
1311 1 -4.19516 -1.82947 -3.38711
132 1 -3.78959 -2.18302 -2.66064
2813 2 -3.02297 -2.95102 -3.66309
3213 2 -2.50526 -2.56851 -4.03403
3022 2 -2.8398 -2.20234 -3.41502
3138 2 -2.17597 -1.85206 -3.52384
257 1 -0.807218 -2.59311 -3.83402
2145 1 -0.595475 -1.93294 -4.00557
986 1 -1.27055 -1.73599 -3.30612
2658 1 -0.586151 -2.1346 -3.06494
272 1 -1.46618 -2.63775 -3.16644
3351 2 -6.24978 -0.764072 -3.87565
2323 1 -7.19343 -0.0843303 -2.79228
561 1 -6.67696 -0.879833 -3.15931
3362 2 -5.4477 -1.17285 -3.6238
2204 1 -5.05016 -0.659783 -2.56438
368 1 -4.71221 -0.359972 -3.69635
1177 1 -5.69901 -1.02587 -2.56719
3434 2 -5.87406 -0.270043 -3.37376
1915 1 -3.79586 -1.3338 -3.84649
388 1 -4.36907 -0.820502 -3.09955
1536 1 -3.35231 -1.20538 -3.06288
1904 1 -3.03545 -0.397257 -3.45961
3151 2 -1.57468 -0.709595 -3.90656
1345 1 -1.81584 -1.3401 -2.55103
966 1 -2.37367 -0.987064 -3.09917
2226 1 -2.19409 -0.142149 -2.54758
1645 1 -0.0452106 -1.47211 -2.92228
1529 1 -0.585995 -0.375755 -3.62775
218 1 -0.361226 -1.16306 -3.60687
1877 1 -1.42162 -0.585404 -2.76022
1662 1 -6.32187 -6.0661 -2.12826
3363 2 -6.94524 -6.24831 -1.02546
3254 2 -6.68826 -7.10139 -2.03547
1128 1 -5.33975 -6.46056 -1.48156
629 1 -4.53947 -6.9901 -0.985026
1486 1 -4.62866 -7.24529 -2.00282
340 1 -5.70222 -7.07679 -2.25497
2176 1 -3.8232 -6.9463 -2.35313
2310 1 -3.96104 -6.71471 -1.53127
549 1 -3.4337 -5.98422 -1.92285
3015 2 -2.96676 -6.90861 -1.74933
2505 1 -1.8152 -6.93616 -1.84416
3411 2 -2.79381 -6.81069 -0.866046
1753 1 -1.96065 -6.64296 -0.994941
871 1 -2.03708 -6.08307 -1.79286
523 1 -1.23112 -6.57679 -1.49414
627 1 -0.198321 -7.0157 -0.937889
2637 1 -0.152686 -6.76747 -1.61884
1660 1 -0.929507 -7.00612 -2.21621
2783 2 -7.17659 -5.4265 -1.75729
1325 1 -6.20501 -5.27715 -2.41447
220 1 -6.70449 -4.56076 -1.86299
387 1 -6.13219 -4.46171 -0.844708
3324 2 -4.78921 -5.88399 -2.33484
2580 1 -5.63749 -4.87562 -1.98372
2069 1 -5.73816 -5.56311 -1.39506
1327 1 -4.79385 -4.47103 -1.99961
1002 1 -4.42401 -5.04807 -1.33994
2678 1 -4.00415 -5.73471 -1.46791
3375 2 -3.45891 -4.87036 -2.33052
1848 1 -3.4002 -5.77683 -1.06355
2083 1 -3.4119 -4.86404 -0.859556
181 1 -1.67928 -5.00318 -1.75859
3487 2 -2.82606 -4.49148 -2.28288
857 1 -2.51695 -4.95394 -1.00235
1975 1 -2.43288 -5.73313 -1.04968
427 1 -2.66549 -5.33656 -1.7565
3064 2 -0.359714 -5.82936 -1.53699
3310 2 -0.66574 -5.86393 -2.33679
3288 2 -1.02502 -5.46192 -1.05581
198 1 -0.818749 -4.52649 -1.99701
1154 1 -6.1172 -3.75307 -1.66271
927 1 -7.11508 -4.28678 -1.23511
2882 2 -6.75822 -2.98354 -1.1976
2388 1 -6.90394 -3.46904 -2.24614
178 1 -5.27299 -3.71269 -1.59378
533 1 -4.43613 -4.22011 -0.842026
1225 1 -4.21753 -3.84992 -2.39688
3293 2 -4.01181 -3.17372 -1.68694
3292 2 -3.61849 -4.23522 -1.48158
2969 2 -2.22612 -4.13587 -2.11714
1555 1 -1.87193 -4.39042 -1.25854
2440 1 -2.3773 -3.45706 -1.18426
3575 2 -1.68423 -3.55274 -2.41912
967 1 -2.92595 -3.40745 -1.73463
1162 1 -1.19276 -4.11204 -1.28369
2398 1 -0.610771 -3.93371 -0.823749
1158 1 -0.214146 -4.26053 -2.01082
2841 2 -0.398181 -3.00921 -1.00917
2865 2 -1.0161 -3.26962 -1.75496
2928 2 -0.088411 -3.1913 -1.83566
2959 2 -7.28434 -2.36593 -1.34842
1594 1 -6.6747 -2.58942 -2.32981
343 1 -5.76499 -2.72901 -1.38189
2036 1 -5.44339 -1.95024 -1.04828
1307 1 -5.84787 -2.77609 -2.1416
3242 2 -4.58594 -2.83701 -2.22951
2795 2 -4.7333 -2.95257 -0.98654
1861 1 -4.67253 -1.968 -1.36272
1047 1 -3.91265 -1.50521 -1.81338
1387 1 -3.37634 -2.7858 -2.29014
2858 2 -3.24834 -2.21797 -1.27456
834 1 -2.80535 -1.68119 -2.31823
444 1 -1.85429 -2.56042 -1.46253
1315 1 -1.76278 -2.24796 -2.23437
2782 2 -2.71486 -1.91409 -0.874613
2010 1 -2.51417 -2.54814 -2.13517
2664 1 -1.14216 -1.87924 -1.43846
653 1 -0.64673 -2.27244 -2.12161
1899 1 -0.314608 -2.0759 -1.21774
235 1 -7.14056 -0.263062 -1.54356
2276 1 -6.39225 -0.377783 -2.43546
3000 2 -6.11059 -1.36593 -1.36298
772 1 -7.14409 -1.12098 -2.16246
1575 1 -6.25216 -1.42315 -2.45542
119 1 -7.28673 -1.43528 -1.35233
931 1 -4.57888 -1.37743 -2.39686
691 1 -4.90947 -1.11456 -1.50119
3200 2 -5.86491 -0.484147 -1.28266
3457 2 -5.08748 -0.104708 -1.05488
2373 1 -4.03893 -1.4392 -0.824054
2970 2 -4.27963 -0.280362 -1.57371
3180 2 -3.54703 -0.0424478 -1.68174
3593 2 -3.69639 -0.403052 -2.41553
2500 1 -2.40645 -0.15822 -1.34188
1118 1 -1.85807 -1.35025 -1.58153
2612 1 -2.83701 -0.956558 -1.47695
395 1 -2.07605 -0.665669 -1.88158
2361 1 -2.82642 -0.755462 -2.35633
2192 1 -1.81622 -0.637613 -0.835314
3255 2 -0.63516 -1.30446 -2.11156
3341 2 -1.10934 -0.106908 -1.58529
3141 2 -0.70076 -0.613749 -1.86362
3313 2 -0.413255 -0.422379 -1.08765
2930 2 -6.36972 -6.73463 -0.715239
2154 1 -5.94457 -7.30878 0.519817
1528 1 -6.64704 -6.46219 0.48076
626 1 -7.16781 -7.13783 0.0282898
812 1 -5.37521 -6.43982 -0.360248
3106 2 -4.68447 -6.79684 0.575357
3063 2 -4.60922 -6.01644 0.447141
617 1 -4.28466 -6.07659 -0.683822
3390 2 -3.37786 -6.5219 -0.317494
2334 1 -1.87788 -6.09861 -0.355049
569 1 -1.96612 -6.64174 0.256977
1901 1 -2.58065 -6.81796 0.736288
1695 1 -0.684159 -6.53814 -0.491056
269 1 -1.37235 -5.95793 0.391538
2834 2 -0.596845 -6.89319 0.422339
3145 2 -1.30489 -7.26475 0.216248
2460 1 -7.34643 -4.98045 -0.759024
1089 1 -6.50454 -5.40566 -0.478528
2221 1 -5.95043 -4.51376 -0.0138797
3339 2 -7.19173 -4.55889 0.482668
150 1 -6.17018 -5.71089 0.409858
3348 2 -7.38658 -5.22785 0.282667
2414 1 -5.62238 -5.58529 -0.310811
3505 2 -4.47388 -5.16322 -0.118217
1105 1 -5.24526 -4.75932 -0.781966
1025 1 -5.55262 -5.2022 0.612797
3372 2 -4.43128 -4.46734 0.365473
1894 1 -3.1107 -5.56478 0.465527
364 1 -3.47233 -4.60559 0.260873
599 1 -2.87851 -5.68059 -0.283288
3376 2 -1.82661 -4.76395 -0.10687
1432 1 -2.15501 -5.8088 0.556945
3454 2 -2.47931 -4.4745 0.186902
1150 1 -0.0752289 -5.63051 -0.556323
2008 1 -0.137952 -4.92887 -0.723041
2794 2 -1.13974 -4.89207 -0.363924
2228 1 -0.846045 -4.81313 0.787272
522 1 -0.439057 -5.77776 0.099898
3279 2 -6.91617 -3.88174 -0.0560968
2024 1 -5.98223 -3.7109 0.459058
2899 2 -6.4244 -3.37376 -0.584565
2452 1 -7.36497 -2.97747 0.59661
2543 1 -6.62363 -3.12548 0.494407
2779 2 -4.96672 -4.05857 -0.0878596
2995 2 -5.05429 -3.21572 -0.306914
297 1 -4.60325 -3.41335 0.625608
391 1 -3.76711 -3.30425 -0.687144
1076 1 -3.65716 -3.72341 -0.0481091
877 1 -2.84917 -3.84548 -0.715807
2162 1 -1.55184 -3.50556 -0.641046
1335 1 -1.97944 -3.09495 0.0957928
677 1 -2.85701 -3.48637 0.037469
311 1 -0.599192 -4.12834 0.0203683
92 1 -1.34977 -3.81371 0.72627
1351 1 -1.02272 -3.46145 0.061535
2914 2 -0.209345 -2.98922 0.101427
1839 1 -6.90417 -1.53322 -0.412267
1361 1 -6.49484 -2.04042 -0.785985
2101 1 -6.92045 -2.28797 -0.0195463
1905 1 -6.0098 -2.20833 -0.328208
2576 1 -4.70946 -1.78545 -0.537875
422 1 -5.7956 -2.85964 0.621283
2564 1 -5.12992 -2.25502 0.274748
1208 1 -4.13414 -2.38638 -0.53864
3426 2 -4.32477 -1.54531 0.418946
1567 1 -4.39058 -2.64114 0.619941
120 1 -3.53975 -2.09131 -0.130426
1789 1 -3.60521 -2.89651 0.194371
3417 2 -2.60115 -2.62944 -0.537207
3284 2 -2.08779 -1.63605 -0.245252
911 1 -1.88969 -2.44172 0.685256
1506 1 -2.87231 -2.0576 0.491081
1691 1 -1.4737 -2.63246 -0.605817
1941 1 -0.873977 -1.95756 -0.18622
1890 1 -1.07361 -2.62661 0.171367
655 1 -6.69777 -0.657512 -0.707628
640 1 -6.99453 -0.243497 -0.104338
707 1 -6.18765 -0.44621 0.260323
3043 2 -6.56176 -1.4425 0.54887
690 1 -4.89363 -1.03796 -0.680064
895 1 -5.64459 -0.533664 -0.134238
1730 1 -5.70689 -1.41095 -0.353678
3570 2 -4.6111 -0.854419 0.365513
1644 1 -5.43441 -1.20441 0.627289
2557 1 -3.62697 -0.890516 -0.654694
970 1 -3.56835 -0.182002 -0.227661
1767 1 -3.24567 -0.984527 0.0705699
2312 1 -2.70772 -0.263765 -0.500602
1666 1 -1.65214 -0.431335 -0.0758453
3195 2 -1.80053 -1.41169 0.514288
488 1 -2.63647 -0.496675 0.363855
1805 1 -1.15203 -1.24641 -0.720355
2372 1 -0.726859 -0.777633 -0.120924
622 1 -6.27766 -6.83959 1.20244
1798 1 -6.68516 -6.07819 1.2779
2684 1 -6.91189 -6.31911 1.96444
3017 2 -6.26369 -7.20288 2.29803
3355 2 -5.46853 -6.32996 1.07939
1500 1 -4.69315 -6.92953 1.85546
1358 1 -5.50602 -6.42122 2.12453
259 1 -5.18774 -7.31018 2.42802
740 1 -4.41102 -6.15499 1.71988
2988 2 -3.35015 -6.4174 2.36247
896 1 -3.67922 -6.85805 1.39515
540 1 -3.58379 -6.26878 0.957636
2043 1 -2.26924 -7.06444 1.82649
2756 2 -2.35703 -5.95461 1.64492
2696 1 -1.36767 -6.46805 1.76258
1364 1 -0.93175 -6.14492 1.11346
1859 1 -0.264559 -6.60058 1.34656
923 1 -0.839348 -6.35403 2.44102
809 1 -0.375627 -7.10451 2.36181
3358 2 -1.2154 -7.38012 0.955071
2588 1 -6.04258 -5.69535 1.69308
2025 1 -7.2934 -5.18104 1.59297
3554 2 -6.56376 -4.872 0.948451
869 1 -6.99066 -5.05643 2.46426
1300 1 -6.11158 -4.90291 2.04848
66 1 -4.55041 -4.88335 1.2982
590 1 -5.63519 -4.50856 1.39931
180 1 -5.06555 -5.42956 1.5354
1976 1 -4.04722 -5.41262 1.79501
56 1 -3.61558 -5.54448 1.05549
1739 1 -3.01016 -4.68389 0.939065
2613 1 -3.57524 -4.51732 1.82911
2382 1 -1.61145 -5.62577 1.66727
2002 1 -1.60391 -5.15 0.94549
2830 2 -2.7411 -5.90645 2.33846
2599 1 -2.84151 -4.91413 1.67102
972 1 -1.97196 -4.80224 1.73227
2757 2 -0.558984 -5.35104 1.80736
2528 1 -1.26918 -5.37995 2.40195
3109 2 -0.749267 -4.56963 1.76391
3590 2 -6.80747 -3.92734 1.31923
3544 2 -6.65604 -3.92617 2.17067
2526 1 -5.93159 -3.12325 1.8535
957 1 -4.49873 -4.17549 1.57887
3489 2 -4.8814 -3.80432 2.4034
992 1 -5.46775 -3.61911 1.02396
3578 2 -4.72498 -3.14806 1.999
2005 1 -4.02988 -4.30606 2.46354
3468 2 -3.9184 -3.2357 1.62646
2038 1 -2.96262 -3.76688 2.01903
1985 1 -3.44852 -3.88627 0.970797
1710 1 -1.76416 -4.36745 1.17078
3478 2 -2.01406 -3.34774 1.38683
2986 2 -1.54472 -3.4264 2.02686
2940 2 -1.06694 -3.99939 2.20504
348 1 -0.364391 -4.03295 0.937995
1682 1 -0.334799 -3.19391 1.56442
3492 2 -6.31651 -1.65005 1.15361
1935 1 -7.37838 -1.85949 2.04815
2555 1 -7.19042 -2.25183 1.10157
2668 1 -7.26699 -2.93426 1.70154
1572 1 -6.23992 -2.73071 1.29279
1451 1 -6.05246 -2.49128 2.21644
2395 1 -6.91054 -2.83013 2.41054
1164 1 -5.43691 -2.34431 1.6219
1332 1 -5.18637 -2.78648 1.12299
615 1 -4.92276 -1.86948 1.2176
52 1 -4.71315 -2.09543 2.34939
3566 2 -3.81597 -1.84918 0.946942
96 1 -3.90163 -1.50443 2.24613
3021 2 -3.93182 -2.43177 1.66832
1243 1 -3.18675 -1.66571 1.59445
141 1 -3.34114 -2.42698 2.39396
2319 1 -3.10668 -2.75288 0.855395
1965 1 -1.48626 -2.02763 1.552
1887 1 -2.47954 -1.94918 1.1106
1769 1 -2.20724 -2.29314 2.43007
1854 1 -2.76081 -2.562 1.67998
1317 1 -0.65518 -2.18131 1.07239
168 1 -1.09749 -2.86274 0.956573
1983 1 -1.03593 -2.41133 2.19062
470 1 -6.83359 -0.174213 1.11201
2015 1 -6.42643 -0.688938 2.237
704 1 -7.03582 -1.14282 1.60531
3174 2 -5.56358 -1.44573 2.05108
2387 1 -5.24332 -0.437766 1.21586
1309 1 -5.87788 -0.615153 1.6633
2264 1 -4.85755 -0.312486 2.06305
1169 1 -4.55584 -1.24074 1.63824
482 1 -4.59905 -0.0308861 1.21977
1598 1 -4.10105 -0.623797 1.38678
1913 1 -3.19468 -1.03021 0.846992
1478 1 -3.37912 -0.88689 1.91902
752 1 -3.27771 -0.412643 1.1294
3228 2 -2.34561 -1.23545 2.25107
2736 2 -1.98744 -0.779629 1.24027
328 1 -1.24632 -1.097 1.7373
2243 1 -0.508468 -0.656245 1.10725
567 1 -0.809458 -1.36127 1.0572
708 1 -0.30048 -0.865048 1.99561
2864 2 -6.85384 -7.35527 3.17941
1957 1 -7.07443 -5.99549 2.83817
1966 1 -6.22252 -6.168 2.50716
3215 2 -6.38552 -6.29081 3.96752
1619 1 -7.23683 -6.68153 4.00767
172 1 -4.83621 -6.76909 3.04853
3302 2 -5.64592 -5.96379 3.35769
1775 1 -5.87739 -6.94631 3.0015
49 1 -5.36873 -6.93599 3.77804
2750 2 -3.78651 -6.96323 2.80428
943 1 -4.15322 -6.1994 3.48749
731 1 -3.23646 -6.39118 3.40806
833 1 -3.39778 -7.16254 3.9542
787 1 -2.31502 -6.66806 3.11848
1343 1 -2.33233 -7.34505 2.70736
1502 1 -1.84001 -6.66209 2.49438
2437 1 -2.75724 -7.39179 3.43936
1475 1 -1.03918 -7.04352 3.20029
2021 1 -0.136833 -6.452 3.07546
1994 1 -1.35985 -5.94618 3.89723
2722 1 -6.66185 -4.95009 3.14765
1458 1 -7.17225 -5.35763 3.79473
2642 1 -6.12305 -4.72026 4.1059
3268 2 -5.12737 -4.89917 2.58699
2747 2 -5.68852 -5.18636 3.12805
2905 2 -5.00381 -5.63388 2.53975
271 1 -5.00212 -4.76831 3.82037
926 1 -3.9091 -5.25053 2.58902
2446 1 -4.39133 -5.42027 3.50002
23 1 -3.40317 -5.30101 3.33895
1141 1 -1.47985 -4.66782 3.24653
2222 1 -2.19031 -5.65504 3.50187
1924 1 -1.89435 -5.80877 2.68599
1399 1 -2.03628 -4.71126 2.47672
2161 1 -0.639691 -4.82144 2.89
2578 1 -0.508707 -5.45418 3.58049
19 1 -0.989607 -5.87301 3.17591
2283 1 -0.379261 -4.60126 3.70544
2974 2 -7.06008 -3.96016 2.95638
3197 2 -7.19058 -3.77676 3.65415
2173 1 -6.12027 -3.93184 3.77115
1157 1 -5.99677 -3.06879 2.94517
2821 2 -6.56309 -3.18258 4.08439
3427 2 -5.64437 -4.17829 2.57117
2048 1 -5.06844 -3.49679 3.26122
1411 1 -5.42656 -3.57633 4.05514
1934 1 -3.7418 -4.27757 3.19942
2354 1 -3.92929 -3.78323 3.92109
1015 1 -3.91409 -3.29946 2.74405
1194 1 -4.11947 -2.99253 3.74567
100 1 -2.95989 -4.43322 2.85648
1611 1 -3.04354 -3.51308 2.71663
3210 2 -2.51302 -3.96355 3.85943
2920 2 -2.09484 -3.36756 2.69815
265 1 -1.95746 -3.08736 3.80192
916 1 -0.046487 -3.91179 2.70878
1493 1 -1.26744 -4.10437 3.84067
968 1 -0.792444 -3.68496 3.24277
2503 1 -6.71251 -1.70887 2.51168
2059 1 -6.34892 -2.33615 3.16572
1996 1 -7.22086 -2.52291 3.10671
324 1 -6.12168 -2.32568 3.92584
1903 1 -7.35376 -2.22692 4.03783
2879 2 -5.44022 -1.54856 2.78652
1178 1 -5.12937 -2.44806 2.89254
889 1 -5.29721 -2.59095 3.53087
2596 1 -4.73992 -1.98499 3.826
1323 1 -4.14157 -2.56534 3.06643
38 1 -4.28801 -1.70113 3.16847
2670 1 -3.82017 -2.12641 3.78999
3160 2 -3.19307 -1.64567 3.15981
1017 1 -3.32533 -2.88539 3.48128
2751 2 -2.77333 -1.52302 2.68313
2434 1 -1.69764 -1.63065 3.28456
2284 1 -2.34831 -2.3363 3.42313
152 1 -1.58511 -2.33204 3.10167
1008 1 -2.56556 -1.55125 3.94226
474 1 -0.843841 -2.77527 3.1009
2268 1 -0.270232 -2.95003 2.56368
1561 1 -1.1249 -1.57014 2.66346
2013 1 -0.779074 -1.85198 3.55611
1748 1 -6.53276 -1.29353 3.13302
2957 2 -7.09455 -0.465392 3.48152
2317 1 -7.19817 -1.16667 2.63535
1527 1 -6.16881 -0.521495 2.924
1722 1 -6.13405 -0.531979 3.99833
3041 2 -5.47371 -1.27261 3.49852
3526 2 -5.03324 -0.907271 2.85752
608 1 -5.56651 -0.0867286 2.68017
2671 1 -4.068 -0.807726 2.6483
2143 1 -4.22689 -0.0156418 3.63832
2399 1 -3.82694 -0.837032 3.8975
3442 2 -3.09687 -0.635147 2.96332
1181 1 -2.13725 -0.847276 3.5315
1783 1 -1.92372 -0.339623 2.53771
1595 1 -2.62237 -0.121845 4.04951
1027 1 -1.26648 -0.769557 3.0685
1755 1 -0.900658 -0.286568 2.61508
822 1 -0.312443 -0.29601 3.6653
2031 1 -0.263544 -1.16361 3.28294
425 1 -6.41524 -7.31157 4.79961
1331 1 -7.10784 -6.62215 5.00902
2429 1 -5.93316 -6.61318 4.92953
1246 1 -4.99899 -7.08156 5.68704
2675 1 -5.49877 -6.26834 5.66814
1186 1 -4.88156 -6.59828 4.48068
1065 1 -3.9092 -6.63636 4.15279
891 1 -4.30166 -7.18259 4.62232
3158 2 -4.00377 -6.59822 5.29691
2598 1 -3.10317 -6.38221 4.28773
508 1 -3.01866 -6.86775 5.24819
3592 2 -1.93946 -6.94162 4.28337
249 1 -1.87408 -6.41597 5.1904
18 1 -1.25948 -6.81541 5.49299
3029 2 -0.734472 -7.02891 4.21777
674 1 -0.207175 -6.37424 5.41272
3524 2 -0.0538727 -6.03069 4.17194
893 1 -0.204331 -7.10118 5.20796
2837 2 -6.63061 -5.3386 5.23501
1336 1 -6.11249 -5.45654 4.39418
2322 1 -6.89152 -4.75508 4.43061
3038 2 -6.28302 -4.65923 5.64769
2191 1 -5.06542 -5.65228 4.12914
2111 1 -5.49637 -5.5938 5.05857
1290 1 -5.32522 -4.97169 4.48365
3091 2 -4.29018 -5.11914 4.97998
3360 2 -4.39993 -5.85468 5.04201
1272 1 -3.81545 -5.58194 4.27223
3276 2 -4.21815 -4.5215 5.31507
1406 1 -3.13122 -4.46525 4.778
500 1 -3.33085 -5.68601 5.25156
1538 1 -3.68376 -4.72132 4.16207
593 1 -2.3634 -5.89677 4.4909
2552 1 -2.6806 -5.90482 5.67205
3056 2 -1.94362 -5.03986 5.12323
2063 1 -2.94858 -5.1812 4.7739
3393 2 -2.04997 -4.57213 4.30358
2667 1 -0.563314 -5.6801 4.91525
2092 1 -1.28415 -5.18309 4.12069
283 1 -1.30177 -5.81002 4.5754
2058 1 -0.650291 -4.8598 4.73851
2285 1 -1.06389 -4.69587 5.59743
1058 1 -6.50621 -4.04897 4.72375
1984 1 -7.33199 -3.99311 4.61949
2630 1 -6.80493 -3.32129 5.26845
1051 1 -5.99365 -3.23919 5.54476
390 1 -5.85079 -3.74568 5.02127
951 1 -5.2413 -4.21526 4.60928
562 1 -5.18558 -3.4884 5.68256
2487 1 -4.60731 -3.64519 4.73801
2515 1 -4.11354 -3.42832 5.45318
2554 1 -3.43228 -3.85874 5.55459
1338 1 -3.26936 -3.58234 4.55011
2203 1 -2.74842 -4.03629 5.22847
1149 1 -1.78803 -4.06411 5.55746
456 1 -2.36858 -3.33547 4.80688
852 1 -1.23271 -3.90793 4.66647
2477 1 -1.1288 -3.5209 5.70621
3090 2 -0.618711 -3.182 4.36211
2304 1 -0.0560971 -3.04582 5.2175
1249 1 -6.46697 -2.13287 5.08463
844 1 -5.74153 -2.86864 4.81658
3290 2 -4.74692 -2.6863 4.66492
1659 1 -4.83667 -2.54879 5.62941
775 1 -5.65932 -2.01203 4.64397
757 1 -5.87065 -1.58953 5.13241
960 1 -5.52778 -2.06062 5.62764
2583 1 -4.44767 -1.63479 5.75043
2735 2 -4.03491 -2.41228 4.70165
3019 2 -3.58158 -2.2742 5.34304
884 1 -3.22768 -1.70864 4.44582
3112 2 -3.37615 -2.83217 5.64387
1103 1 -2.64702 -1.88316 5.34381
948 1 -2.49883 -2.58842 5.0759
3323 2 -1.70419 -1.96749 4.49128
820 1 -2.75413 -2.51042 4.32815
2422 1 -1.6395 -2.30044 5.30981
3007 2 -0.0521659 -2.53461 4.20202
3205 2 -1.37465 -2.7432 4.51294
2225 1 -0.730584 -1.88293 4.90795
156 1 -0.627998 -2.64045 5.44767
115 1 -6.65041 -1.08735 5.58616
1650 1 -6.64288 -1.46302 4.29508
2099 1 -6.43846 -0.92833 4.8079
73 1 -6.87272 -0.118349 4.83536
1955 1 -7.37925 -0.543418 5.34678
2271 1 -5.25976 -0.269978 4.47518
1 1 -4.51273 -1.27675 4.11554
3070 2 -5.90014 -0.304126 5.57834
1784 1 -5.15749 -1.17306 4.86081
1086 1 -4.70652 -0.734565 5.46013
1638 1 -3.95098 -1.27492 4.8576
3555 2 -4.23285 -0.0256138 4.72676
537 1 -3.01599 -1.0932 5.48782
2277 1 -3.03761 -0.91084 4.22202
3168 2 -3.37741 -0.187753 4.79877
1558 1 -1.8468 -0.702414 5.65831
78 1 -1.5578 -0.126531 4.80171
2742 2 -1.94861 -1.12473 4.78422
2406 1 -0.998739 -1.12041 5.39455
2965 2 -1.29015 -0.984775 4.1541
688 1 -0.263174 -1.05902 4.8503
2337 1 -0.0887921 -0.375788 4.40295
1204 1 -6.10551 -7.31399 6.9336
671 1 -7.12817 -6.55881 7.29812
1482 1 -7.12474 -6.40391 5.82419
2663 1 -6.29896 -6.3784 5.8231
1639 1 -6.79115 -6.85381 6.41177
1055 1 -6.82092 -7.35417 7.28037
3404 2 -5.60983 -6.11652 6.84434
1126 1 -5.71608 -6.98594 6.18478
2448 1 -4.57884 -6.12063 7.18332
1222 1 -5.0285 -7.33603 6.50952
237 1 -4.73842 -6.36326 6.22056
604 1 -4.76465 -7.0072 7.15746
1295 1 -3.31586 -6.27173 7.16766
2812 2 -3.52641 -6.71179 6.34971
2510 1 -2.46383 -6.67036 6.3048
1219 1 -1.74529 -6.02896 6.11133
3556 2 -2.27951 -6.08616 7.23854
2616 1 -1.21788 -6.33788 6.53737
3147 2 -0.0280997 -6.45049 6.37496
2789 2 -0.509598 -7.30665 6.3525
221 1 -0.986618 -6.36145 7.31018
1796 1 -6.16646 -4.9415 7.15379
1124 1 -6.59115 -5.54746 6.38991
2298 1 -7.12406 -4.6644 6.34066
1395 1 -6.83794 -5.50279 7.08675
2072 1 -4.50301 -5.75902 6.44914
1563 1 -5.0861 -5.41588 5.81316
1995 1 -5.22069 -4.46708 5.82885
818 1 -4.84064 -4.9845 6.63876
212 1 -5.73264 -5.04301 6.44295
1772 1 -5.22681 -4.84208 7.21217
1612 1 -4.00333 -4.86343 6.51751
47 1 -3.33039 -5.30492 6.85243
2491 1 -3.1748 -4.83963 5.83991
319 1 -3.65619 -5.60706 6.11339
3208 2 -2.02997 -5.32215 7.07601
846 1 -1.64203 -4.63006 6.26637
519 1 -2.49179 -5.25779 6.20932
3534 2 -0.402286 -4.48732 6.66769
2718 1 -0.516378 -5.54869 7.1774
243 1 -1.13084 -5.41528 6.70633
2359 1 -0.680682 -5.51412 5.87004
3294 2 -6.6171 -3.95672 7.04773
3271 2 -6.12054 -3.98689 6.36842
1533 1 -7.33271 -3.74912 6.3869
75 1 -5.97505 -2.96253 6.67107
544 1 -6.64929 -3.1798 6.18774
2411 1 -4.74158 -3.77767 6.58853
3 1 -5.50938 -3.5277 7.10745
2341 1 -4.07429 -3.959 6.20055
1185 1 -3.93102 -3.24279 6.68274
1766 1 -3.47038 -3.93736 7.33741
735 1 -3.07975 -4.06444 6.31156
1592 1 -2.98749 -3.05188 7.28322
191 1 -2.68439 -3.93852 7.12926
654 1 -2.25295 -4.07494 6.45721
3401 2 -2.12312 -3.04137 6.09811
2282 1 -1.63282 -3.67748 6.90512
3076 2 -0.195874 -4.10527 5.85773
1368 1 -1.05161 -3.15914 7.18645
1492 1 -0.191569 -3.16563 6.03811
162 1 -0.939758 -3.02672 6.37268
1944 1 -0.196125 -3.22402 7.33188
2594 1 -7.04262 -2.73442 6.84154
393 1 -6.00149 -1.73687 6.20606
176 1 -6.18524 -2.49486 6.03447
789 1 -6.71717 -1.80729 6.98089
3320 2 -7.10673 -2.14515 5.92803
2766 2 -5.02341 -1.58426 6.57124
2753 2 -4.88865 -2.3376 6.77692
532 1 -5.89169 -2.09027 7.12735
411 1 -4.25094 -2.74565 6.12904
2190 1 -3.86457 -2.03215 6.68574
394 1 -3.61494 -2.5906 7.02082
602 1 -3.22801 -1.50148 6.12686
969 1 -2.1448 -1.6803 6.09849
1262 1 -2.77279 -2.04735 6.77532
3540 2 -2.87277 -2.83837 6.17997
1764 1 -1.74854 -2.08468 7.1445
1281 1 -2.09584 -2.95785 7.29127
2041 1 -0.17804 -1.69809 6.10361
1041 1 -1.25972 -1.89697 5.90347
1534 1 -0.974425 -2.01697 6.75157
2380 1 -6.5764 -0.917576 6.49808
254 1 -7.16531 -0.880089 6.08212
382 1 -6.42523 -0.487602 7.3094
2297 1 -7.2794 -0.430095 7.34427
449 1 -5.16949 -0.193762 6.67757
2792 2 -5.62831 -1.05724 5.9204