ITEM: TIMESTEP
0
ITEM: NUMBER OF ATOMS
3594
ITEM: BOX BOUNDS pp pp pp
-7.0765552560614413e+00 7.0765552560614413e+00
-7.0765552560614413e+00 7.0765552560614413e+00
-7.0765552560614413e+00 7.0765552560614413e+00
ITEM: ATOMS id type x y z
806 1 -6.64961 -6.49742 -6.68168
177 1 -7.03013 -5.69265 -6.65298
1483 1 -6.19804 -5.86565 -6.12734
1484 1 -6.55566 -6.67341 -5.92126
1179 1 -4.93444 -6.41116 -6.9072
1385 1 -5.75174 -6.5645 -6.70807
2089 1 -4.53094 -6.48496 -6.01892
348 1 -5.40703 -6.24082 -6.16775
1148 1 -4.2899 -5.95206 -6.548
1465 1 -3.78303 -7.0294 -6.11769
2923 2 -3.32239 -6.32452 -7.00629
2810 2 -3.01439 -5.89418 -6.25203
653 1 -2.17297 -6.49922 -6.66869
2859 2 -0.793412 -6.75151 -6.20643
325 1 -1.6713 -6.19876 -5.79239
1666 1 -1.00403 -5.86519 -6.90882
3477 2 -0.326014 -6.40427 -5.71406
819 1 0.483177 -5.73701 -6.04928
635 1 0.0572455 -6.05581 -6.68584
3212 2 1.74036 -6.20962 -5.84493
2977 2 1.45306 -5.73591 -6.81381
1150 1 0.733056 -6.4433 -6.36811
208 1 1.32391 -6.82147 -6.9959
1548 1 3.15632 -6.31617 -5.7073
1848 1 2.54464 -6.56325 -6.54803
2243 1 2.63993 -5.78437 -6.53648
3075 2 4.21982 -5.92892 -6.08109
3057 2 3.85698 -6.22591 -6.66259
385 1 5.45499 -6.11759 -6.16201
2392 1 5.05614 -6.51957 -6.88889
3537 2 6.63224 -6.35915 -5.68383
1194 1 6.19541 -5.76214 -6.47983
3092 2 6.34018 -6.84801 -5.97186
1318 1 7.03326 -7.05003 -7.04967
3219 2 5.93615 -7.06839 -6.49548
1004 1 -6.11459 -5.17618 -5.66895
955 1 -6.20668 -4.37097 -6.04881
1717 1 -6.68458 -5.00696 -6.26178
687 1 -6.20753 -4.45718 -6.84513
3262 2 -5.30517 -5.24306 -6.41465
2878 2 -5.10534 -4.82114 -5.85871
3143 2 -5.70911 -5.43153 -7.07515
2707 1 -4.04304 -4.5242 -6.51152
1870 1 -3.99914 -5.2425 -6.19581
1637 1 -3.3295 -5.08244 -6.87244
3473 2 -2.49131 -5.47957 -5.72602
290 1 -2.88841 -4.59442 -6.289
979 1 -2.00997 -4.65437 -6.45928
649 1 -2.39461 -5.38968 -6.93364
1137 1 -2.48957 -4.39785 -7.05674
825 1 -0.965079 -5.3617 -5.70549
2622 1 -1.6218 -5.36429 -6.4688
549 1 -0.454511 -5.46418 -6.43248
2920 2 -0.603059 -4.40988 -6.53241
2110 1 -0.0432037 -5.07046 -5.6862
2443 1 0.499323 -4.7973 -6.41207
3159 2 1.69466 -5.23394 -6.22484
360 1 1.19799 -4.32762 -5.74988
1997 1 3.12366 -5.38969 -5.90913
1092 1 2.64805 -4.54457 -6.75668
3062 2 2.32419 -4.76562 -5.74442
1740 1 3.36568 -5.02042 -6.66357
2145 1 3.91787 -4.77514 -5.80542
1747 1 4.63984 -4.89595 -6.47013
1674 1 4.7638 -4.32294 -5.6991
457 1 5.10045 -5.43183 -6.89528
1680 1 5.47371 -5.04395 -6.21659
1200 1 5.43869 -4.26402 -6.08571
531 1 6.12244 -5.4428 -5.71547
1752 1 6.86431 -5.11961 -5.70542
2839 2 6.39843 -4.74232 -6.77486
1214 1 -6.74789 -3.77078 -7.01119
2915 2 -7.01406 -3.72341 -5.80279
132 1 -6.21353 -3.2872 -6.31998
1644 1 -5.51163 -3.9999 -6.79983
2645 1 -5.69536 -3.76015 -5.72258
1220 1 -4.9028 -3.75408 -6.34672
1472 1 -4.13017 -3.50024 -5.95651
1233 1 -3.88485 -2.91075 -6.41309
1300 1 -4.48363 -3.49714 -6.99341
2157 1 -3.52224 -4.14643 -5.93841
3410 2 -2.04244 -2.92077 -5.66529
3566 2 -2.58014 -3.36073 -6.14617
3059 2 -3.12943 -3.5378 -6.72914
2123 1 -1.77028 -3.95811 -6.58392
1480 1 -1.31521 -3.73331 -5.88587
954 1 -1.16926 -3.26644 -6.45267
3341 2 -0.273509 -4.00009 -6.00947
1473 1 -0.208294 -3.0279 -6.53976
795 1 1.54225 -3.72091 -5.90809
1143 1 1.07033 -3.86176 -6.70541
10 1 0.888897 -3.17305 -6.30024
787 1 2.4568 -3.55953 -6.07955
206 1 1.94321 -4.16978 -6.84585
2017 1 2.9407 -3.57612 -6.7866
2080 1 3.52912 -3.87007 -6.04769
2575 1 3.45611 -3.09411 -5.7324
3421 2 4.02133 -3.88394 -6.97087
3156 2 4.4169 -3.41035 -6.40443
2153 1 5.16937 -3.99923 -6.85563
3447 2 4.72589 -2.93952 -5.81353
2612 1 5.589 -2.8962 -6.66447
2436 1 6.0389 -3.5876 -6.89497
3553 2 6.63063 -4.2288 -6.14108
1924 1 5.83065 -3.54929 -5.95314
145 1 6.77117 -2.99378 -6.61345
1404 1 -6.61404 -2.75233 -6.69558
1750 1 -6.30863 -2.38375 -5.98093
1059 1 -5.8122 -1.91603 -6.69898
3122 2 -7.04829 -1.49069 -6.56385
2892 2 -5.0758 -2.68775 -6.47513
3115 2 -4.51224 -2.30397 -6.087
996 1 -5.60406 -1.61136 -5.9124
2401 1 -3.82875 -2.19993 -6.84106
1458 1 -3.29312 -2.56479 -5.73282
1320 1 -3.01387 -2.47798 -6.85871
2055 1 -2.26364 -2.14073 -6.42216
1085 1 -1.933 -2.7885 -6.91926
1086 1 -2.54143 -1.45559 -5.68742
552 1 -3.01397 -1.89447 -6.22621
2129 1 -0.692866 -2.73669 -5.80499
1416 1 -1.672 -1.61681 -6.27009
2600 1 -1.36371 -2.36943 -6.30734
3301 2 -0.430354 -1.84488 -6.75149
2526 1 0.319179 -2.58568 -5.85821
3300 2 0.103278 -1.63409 -6.05962
1820 1 0.500394 -2.49338 -6.89958
326 1 1.02512 -1.5974 -6.79198
1532 1 0.941752 -2.21486 -6.27078
2559 1 1.53706 -1.65254 -5.90595
802 1 2.01991 -1.59641 -6.85532
413 1 3.19762 -2.75848 -6.57016
3380 2 2.33587 -2.20489 -6.01686
3495 2 1.98239 -2.78113 -6.55592
699 1 3.27118 -1.88786 -6.54994
713 1 3.7399 -2.30286 -5.72192
599 1 4.2067 -2.39228 -6.73321
2525 1 5.01261 -1.96853 -6.59166
1140 1 4.55382 -1.76783 -5.98706
1663 1 6.4744 -2.44832 -5.9484
560 1 5.8667 -1.86504 -6.14506
2828 2 6.69093 -1.79132 -6.98109
3504 2 -6.66384 -1.2512 -5.95452
1631 1 -6.07107 -0.779204 -6.64059
700 1 -6.93071 -0.31373 -6.69602
2107 1 -4.61457 -1.29737 -6.75368
1645 1 -5.07979 -1.10166 -6.09432
1741 1 -5.50533 -0.272479 -5.93601
2886 2 -4.9893 -0.173351 -6.91013
780 1 -4.13968 -0.59784 -5.89599
1545 1 -3.81705 -0.621936 -6.84224
185 1 -3.54686 -1.36878 -6.53351
1944 1 -3.33222 -0.764512 -5.94923
2946 2 -2.21531 -0.496147 -5.96717
3449 2 -2.59048 -0.709541 -6.7033
1293 1 -1.22337 -0.965758 -6.61706
1530 1 -0.976831 -0.884692 -5.74881
1236 1 -1.43849 -0.0964988 -6.57434
2598 1 -0.350628 -0.406507 -6.29317
1975 1 0.346439 -0.871552 -6.94552
427 1 1.48175 -0.893891 -6.48087
349 1 0.755613 -0.402972 -6.59562
408 1 1.55945 -0.211824 -5.67264
2448 1 2.75773 -1.1308 -6.453
1905 1 2.16627 -0.871673 -5.85682
2874 2 2.00154 -0.195806 -6.978
2547 1 3.39685 -0.654102 -6.37345
774 1 3.34088 -0.301787 -7.04315
1109 1 3.66318 -1.2626 -5.94697
3382 2 4.19593 -1.25955 -6.74982
1760 1 3.84257 -0.0221155 -5.85764
1910 1 5.6374 -1.39396 -6.97178
3032 2 4.76321 -0.817755 -6.7784
3269 2 4.62557 -0.577542 -6.15398
3091 2 5.41869 -0.61643 -6.18295
70 1 5.66417 -0.00830918 -6.90846
2148 1 6.09953 -1.28599 -5.68842
587 1 6.5493 -0.412475 -5.70196
1875 1 6.33765 -0.808686 -6.5513
1866 1 -6.70955 -6.89996 -4.54173
1367 1 -5.86327 -6.21257 -5.46049
2951 2 -6.55743 -5.86492 -4.65587
1851 1 -5.95661 -6.76428 -4.79215
3303 2 -6.95835 -5.95998 -5.26094
1071 1 -5.05926 -5.92279 -5.42755
2026 1 -5.4798 -6.21848 -4.4839
3388 2 -4.6117 -6.58815 -4.69905
3398 2 -4.47938 -7.04069 -5.26044
395 1 -3.69212 -6.28284 -5.37078
2831 2 -3.99992 -6.27528 -4.35464
1345 1 -4.29931 -5.75617 -5.47851
2272 1 -2.57946 -6.55854 -5.28039
752 1 -2.33964 -6.18333 -4.44334
2002 1 -3.14073 -6.87714 -4.57441
1670 1 -3.09986 -5.84354 -4.85083
936 1 -1.6908 -6.53596 -5.07724
1346 1 -0.738289 -6.20291 -4.39623
2278 1 -1.28216 -5.9185 -4.88174
2944 2 -0.0916915 -6.04514 -5.13833
1309 1 0.348913 -6.96036 -4.59698
1453 1 1.15126 -5.73952 -5.35079
2297 1 0.697247 -6.67463 -5.48269
744 1 1.0958 -6.2603 -4.62714
572 1 1.86968 -5.77936 -4.778
1527 1 2.5787 -5.75408 -5.32577
3071 2 2.73225 -6.75204 -4.63548
3461 2 2.89129 -6.03138 -4.28876
3584 2 2.3664 -7.01353 -5.23428
1621 1 4.46169 -6.15433 -4.58468
817 1 3.93351 -6.82346 -4.79539
1795 1 3.72573 -6.24836 -5.167
2204 1 4.46491 -7.05866 -5.54973
2211 1 5.73096 -5.99338 -5.26035
637 1 5.71397 -6.91122 -5.11103
2435 1 5.01325 -6.45937 -5.45452
2024 1 5.29099 -6.11497 -4.57789
3108 2 5.0235 -7.0537 -4.32891
1609 1 6.1456 -6.27514 -4.52455
1878 1 -6.52344 -4.70086 -5.05977
1010 1 -6.34964 -4.25708 -4.39947
547 1 -5.63578 -5.07184 -4.96031
3423 2 -4.8194 -4.39853 -5.44943
1162 1 -5.01263 -5.38903 -4.63087
2524 1 -5.00817 -4.64419 -4.41325
219 1 -4.27489 -5.30817 -4.69894
1408 1 -3.67305 -5.25847 -5.415
20 1 -3.25813 -4.74653 -4.61116
1043 1 -3.13856 -4.64405 -5.44907
1964 1 -2.8655 -5.35301 -4.27441
2905 2 -2.07414 -5.21756 -5.13704
2437 1 -2.61981 -4.32561 -4.75602
1251 1 -1.37625 -4.50563 -5.65004
776 1 -0.671721 -5.3299 -4.5083
3189 2 -1.46531 -4.69591 -4.38689
1951 1 -0.612774 -4.6851 -5.03493
2396 1 0.160099 -4.56485 -4.88153
3141 2 0.269797 -5.65286 -4.54866
594 1 1.61571 -4.85877 -5.00003
3120 2 0.682476 -5.1739 -4.2574
648 1 0.769215 -4.94417 -5.35207
251 1 2.38484 -5.18277 -4.66546
3284 2 2.80088 -4.24632 -5.31876
760 1 3.32794 -5.30693 -5.00507
101 1 3.78941 -4.4647 -4.90331
861 1 3.97579 -5.51827 -4.60609
2973 2 4.52338 -5.50918 -5.55113
3516 2 4.92072 -5.14733 -5.11101
3110 2 5.18626 -4.68168 -4.58832
2560 1 6.29326 -5.34492 -4.80339
903 1 5.8467 -4.73729 -5.40037
8 1 6.97122 -4.75148 -4.69903
3328 2 -6.69341 -3.46984 -5.13536
2764 2 -6.10167 -3.17859 -4.60981
2169 1 -5.78297 -4.21637 -5.00296
875 1 -4.82884 -3.11373 -5.33986
1983 1 -5.09692 -3.5061 -4.83969
55 1 -5.67909 -2.91887 -5.61596
3078 2 -4.2625 -4.18033 -5.0635
2994 2 -3.77907 -3.88324 -4.50978
1417 1 -3.82507 -2.99373 -5.14645
167 1 -2.28514 -4.03228 -5.38875
1979 1 -2.33595 -3.73517 -4.33765
1256 1 -2.55267 -2.85812 -4.71837
1253 1 -3.06882 -3.50927 -5.21619
694 1 -0.858533 -3.60329 -5.23437
719 1 -1.61871 -3.79779 -4.84969
1088 1 -0.504387 -3.93436 -4.52549
1410 1 -0.628702 -3.10221 -4.40048
3416 2 0.371729 -3.76209 -5.65701
3033 2 0.501779 -3.40048 -4.98621
1478 1 1.60322 -3.92628 -5.06546
542 1 1.05829 -4.12347 -4.62448
667 1 1.49274 -2.93223 -5.61251
3329 2 1.03104 -2.95105 -4.37966
3390 2 2.94798 -3.87235 -4.60725
2507 1 2.10239 -4.22111 -4.28602
966 1 3.13583 -2.88184 -4.85961
1596 1 1.94766 -2.88503 -4.9738
1980 1 2.54249 -3.10009 -5.45516
204 1 4.39471 -3.90416 -4.67854
1229 1 4.02151 -3.79332 -5.48649
887 1 3.9243 -3.16344 -4.91956
1131 1 5.13658 -3.57748 -5.04697
1027 1 5.46871 -2.97422 -4.31012
2047 1 5.97313 -3.58374 -4.99876
850 1 6.60536 -4.08119 -4.81159
1316 1 6.3727 -3.07122 -5.32137
72 1 6.29746 -3.18354 -4.43378
415 1 7.03249 -2.97696 -4.38113
763 1 -6.80444 -2.50414 -5.36178
2675 1 -5.84094 -1.5997 -4.25205
1873 1 -6.84742 -2.26109 -4.25263
934 1 -6.1921 -1.97865 -5.12572
894 1 -6.71176 -1.47207 -4.29791
30 1 -4.94216 -1.66596 -4.48426
412 1 -5.04217 -2.21076 -5.2428
864 1 -5.45352 -1.42288 -5.09381
2825 2 -4.08751 -1.73241 -5.61725
1198 1 -4.47538 -2.65345 -4.67524
2140 1 -3.30424 -2.53312 -4.70187
1479 1 -2.4291 -1.54178 -4.59337
645 1 -2.76737 -2.16339 -5.11637
1624 1 -0.83211 -1.83048 -5.58289
2872 2 -1.5427 -2.53353 -5.25627
3160 2 -1.28408 -2.28597 -4.5113
1087 1 -0.399948 -2.69783 -5.10575
1218 1 -0.508512 -1.5747 -4.82982
895 1 0.257651 -2.18294 -4.83007
2074 1 1.30104 -1.61124 -4.65937
1263 1 0.977037 -2.12096 -5.32139
1125 1 1.81125 -2.09301 -5.02213
3542 2 2.77868 -1.83743 -5.46654
150 1 2.6283 -2.5308 -4.43965
1097 1 3.41676 -2.32338 -4.39149
2635 1 4.30551 -1.86072 -5.2052
897 1 4.24429 -2.53052 -4.63174
3407 2 5.09783 -2.53759 -5.34133
3137 2 5.64215 -2.15888 -5.12221
3378 2 5.78218 -1.95197 -4.35568
2577 1 4.68915 -1.8752 -4.33239
2251 1 6.65103 -2.40793 -4.8545
2445 1 6.83262 -1.62994 -5.29964
3518 2 -6.06528 -0.613552 -4.88154
2924 2 -6.46863 -0.773449 -5.57291
2926 2 -5.48378 -0.2616 -4.46831
300 1 -4.80213 -0.784136 -5.35153
194 1 -4.68192 -0.996969 -4.67336
2239 1 -4.2725 -0.123623 -4.61159
3204 2 -3.78031 -1.38686 -4.85229
2139 1 -3.2947 -0.308185 -5.21685
2664 1 -2.60154 -0.831155 -5.01783
1332 1 -2.28841 -0.401824 -4.48969
3571 2 -1.68549 -0.28451 -5.44036
98 1 -1.6558 -1.38101 -5.02718
280 1 -1.09722 -1.01016 -4.78293
2510 1 -0.361172 -0.657239 -5.20851
1847 1 -0.362216 -0.589743 -4.29796
3490 2 0.626937 -1.03036 -5.65316
1344 1 0.255999 -1.22284 -4.54447
3468 2 0.859622 -0.513242 -5.0728
1503 1 1.89776 -1.07632 -5.1119
3294 2 1.39669 -0.169337 -4.52989
1127 1 3.10548 -0.503874 -5.56935
2798 2 3.16673 -1.3879 -5.05645
1378 1 2.58078 -0.649954 -4.64927
1111 1 2.39056 -0.130825 -5.27005
1501 1 4.18524 -0.924587 -5.29839
3017 2 3.61099 -1.21107 -4.42212
1387 1 3.74067 -0.124903 -4.97836
161 1 4.51182 -0.194806 -4.9895
891 1 4.93177 -1.30353 -5.38051
1425 1 5.06238 -0.263205 -4.29347
2191 1 4.73238 -1.03407 -4.71569
17 1 6.91274 -0.270839 -4.8584
793 1 6.56786 -1.03765 -4.78378
2456 1 5.83033 -0.776333 -4.86512
1117 1 -6.27923 -6.43146 -3.66222
173 1 -6.00901 -5.85426 -2.89762
874 1 -6.64811 -6.34029 -3.00724
904 1 -4.57045 -6.75263 -3.25424
1454 1 -5.25659 -5.67617 -2.92203
328 1 -5.25891 -6.36036 -3.51648
2961 2 -3.82192 -5.88095 -3.79158
253 1 -4.38556 -5.89191 -2.89502
1594 1 -3.82233 -6.96463 -3.34149
1254 1 -2.68659 -6.31372 -3.70328
38 1 -3.14868 -6.61418 -2.9185
663 1 -2.12902 -5.82265 -3.2038
3474 2 -1.60624 -6.95293 -3.90609
823 1 -1.69021 -5.92607 -4.06798
3153 2 -0.889854 -6.36464 -2.85762
3465 2 -1.3124 -6.50909 -3.37811
2314 1 -0.211268 -6.77832 -4.15677
2591 1 -0.206317 -6.96163 -3.37657
466 1 0.400155 -6.37379 -3.84052
2731 1 1.64997 -6.5268 -4.04088
354 1 1.22611 -5.96317 -3.42789
743 1 1.99786 -5.80208 -3.65195
1941 1 2.37383 -6.71409 -3.38096
717 1 2.65851 -6.09792 -2.84624
2639 1 3.06608 -7.0301 -3.0341
3213 2 3.25439 -5.81756 -3.71112
12 1 4.04313 -6.61048 -3.99827
1287 1 3.6601 -6.46162 -2.84104
1850 1 4.50264 -6.798 -3.09587
2958 2 5.40535 -6.74166 -3.6313
1394 1 4.80735 -5.80568 -3.85164
2609 1 6.77617 -6.46222 -4.08961
3023 2 5.95253 -6.38856 -3.0939
1786 1 6.91206 -7.02208 -3.38639
2551 1 6.99952 -5.8767 -3.47952
2783 2 -6.20827 -5.52834 -4.09829
3436 2 -6.00373 -4.97321 -3.68823
805 1 -7.01508 -4.563 -3.93236
1599 1 -6.76958 -5.35514 -2.90128
2377 1 -4.8031 -5.61213 -3.78658
3070 2 -5.49191 -4.69652 -3.23072
1842 1 -4.39394 -4.86723 -3.75632
2829 2 -3.40016 -5.58743 -3.18129
2226 1 -3.07954 -4.56024 -3.62365
838 1 -2.28359 -4.33307 -3.7922
933 1 -2.32249 -5.32086 -3.74901
3055 2 -1.15325 -4.27912 -3.9018
689 1 -0.987126 -5.46511 -3.56601
1328 1 -1.83066 -4.49509 -2.96312
16 1 -1.5332 -5.15418 -3.2307
2053 1 -0.285202 -4.9044 -3.72623
1161 1 -0.108529 -5.56825 -3.35963
1273 1 -0.588262 -4.86221 -2.90798
2672 1 0.122864 -4.28454 -4.06314
1291 1 0.511664 -4.70587 -3.30689
3530 2 1.44397 -5.05316 -4.0006
708 1 0.761019 -5.51116 -2.83302
2767 2 1.5562 -4.44275 -3.37903
2316 1 2.77594 -4.80392 -3.82053
1523 1 2.5002 -5.12154 -3.15918
1265 1 4.39111 -5.17514 -4.0385
1932 1 3.59787 -4.80961 -4.1706
143 1 4.30732 -4.39477 -4.07563
3121 2 3.75702 -5.59227 -3.25941
3422 2 3.79236 -5.00427 -2.93309
842 1 5.45626 -4.45994 -2.83356
1238 1 4.83641 -4.67356 -3.38798
1039 1 5.39387 -5.26962 -3.30712
2318 1 6.62584 -5.4369 -3.92806
1414 1 5.85864 -5.60226 -4.05441
3437 2 5.85587 -4.62639 -4.12861
192 1 6.32609 -5.18589 -3.22771
869 1 6.94112 -4.66032 -3.04733
426 1 -6.42679 -4.15333 -3.07273
1531 1 -6.39651 -3.40511 -3.69735
1386 1 -4.80163 -3.76284 -3.79856
112 1 -5.52223 -4.01223 -4.17458
146 1 -5.68754 -3.59327 -3.47363
2641 1 -4.51982 -3.15152 -4.10169
2225 1 -3.99815 -4.23475 -3.47049
2678 1 -3.86828 -3.47349 -3.04656
1815 1 -2.7215 -4.22988 -2.87953
1489 1 -1.94079 -3.7029 -2.87679
2988 2 -3.20757 -3.35941 -3.92223
2814 2 -2.8655 -3.12129 -3.28394
3395 2 -0.799008 -4.03438 -3.34775
2234 1 -0.780467 -2.91411 -3.69759
23 1 -1.62602 -3.18368 -4.24401
2680 1 -1.79899 -3.47105 -3.68163
1119 1 -1.27368 -2.99438 -2.9588
3576 2 -0.374608 -3.51673 -3.03456
287 1 0.614313 -3.92188 -3.31591
268 1 0.207042 -3.52243 -4.00025
2276 1 1.61578 -3.60523 -3.91672
315 1 0.965052 -3.34406 -2.92404
2490 1 1.79877 -3.46343 -3.00904
2003 1 2.97356 -4.15528 -3.37484
2138 1 2.27273 -3.16345 -4.17491
1739 1 2.40914 -3.34571 -3.36794
1567 1 2.97858 -3.29797 -2.88035
3343 2 3.33027 -3.44207 -4.04105
1846 1 3.87731 -4.16864 -3.34976
2732 2 3.82538 -3.10786 -3.53582
3024 2 5.67436 -3.89967 -3.90822
2059 1 4.68121 -3.80383 -3.32063
775 1 4.71332 -3.42588 -4.02162
279 1 5.38369 -3.11221 -3.24094
2554 1 7.0671 -3.7511 -4.13126
3161 2 6.23347 -3.9678 -3.4509
3166 2 6.7367 -3.36446 -3.06754
166 1 -6.15236 -2.58809 -2.99683
971 1 -6.13442 -1.5005 -3.05943
684 1 -6.41758 -2.019 -3.52927
2545 1 -7.02953 -2.67862 -3.53508
3574 2 -5.17238 -2.34925 -3.70806
3583 2 -5.69471 -2.70065 -4.22391
3060 2 -5.02896 -1.96238 -3.05072
627 1 -4.06904 -2.23264 -4.22386
2146 1 -4.17352 -1.4872 -3.6668
115 1 -4.0362 -2.74041 -3.40178
2538 1 -3.60671 -1.77977 -3.02407
2599 1 -3.25832 -2.10502 -3.85437
39 1 -1.95711 -2.6622 -3.57767
1081 1 -2.46916 -2.20347 -4.00643
21 1 -2.08333 -1.45006 -3.65665
938 1 -2.63249 -1.70574 -2.94188
2942 2 -0.871378 -1.70192 -3.84269
2653 1 -1.47899 -2.15671 -3.05511
488 1 -0.502914 -2.27502 -2.83919
1243 1 0.0754337 -2.3923 -4.03696
1534 1 0.39164 -1.74693 -3.39837
1464 1 0.232881 -2.68436 -3.22913
2233 1 0.834482 -1.64168 -4.04048
3169 2 1.37699 -2.48223 -3.85943
3040 2 1.8207 -2.19943 -3.32769
62 1 2.61515 -1.83894 -4.15231
2364 1 3.19713 -1.41969 -3.54669
292 1 2.82023 -2.49384 -3.54382
3211 2 2.23861 -1.47683 -2.92775
773 1 3.40732 -2.04118 -3.1119
52 1 4.05205 -1.91184 -3.76152
1518 1 4.48364 -1.53044 -3.24344
3549 2 4.23399 -2.82987 -2.98058
2127 1 5.11851 -2.12897 -3.57432
881 1 4.7141 -2.65295 -4.06201
888 1 6.10766 -2.68298 -3.75224
2969 2 6.29321 -1.54493 -3.91994
1165 1 6.51011 -2.43532 -2.92632
1374 1 5.90747 -1.981 -3.13058
1208 1 -5.81848 -1.07025 -3.64047
217 1 -6.93689 -0.641673 -4.03238
1444 1 -6.47289 -0.447444 -3.45181
2378 1 -5.81417 -0.177253 -3.13541
294 1 -4.86835 -0.927519 -3.80837
2362 1 -4.94976 -0.667081 -3.04356
913 1 -4.21008 -0.379744 -3.73359
341 1 -3.98758 -0.760907 -3.10123
2966 2 -3.31314 -0.96304 -4.1706
2756 2 -2.88115 -0.781782 -3.56958
3146 2 -2.44657 -0.213949 -3.07624
2398 1 -1.68688 -0.735886 -4.01337
2076 1 -1.3365 -0.455449 -3.22604
266 1 -1.45676 -1.26182 -2.94448
2812 2 -0.46872 -1.16371 -3.45554
2023 1 1.655 -0.854432 -3.57551
1506 1 1.89873 -1.17307 -4.19393
2181 1 0.720106 -0.933793 -3.81813
42 1 0.660503 -0.075543 -3.59044
1065 1 1.09745 -1.35646 -2.94825
134 1 1.41892 -0.300621 -3.12828
679 1 2.61386 -0.634056 -3.59071
1655 1 3.10928 -0.102772 -3.98354
785 1 2.81668 -0.43137 -2.91517
3397 2 4.01422 -0.718098 -3.92759
625 1 3.64392 -0.961964 -2.97074
1063 1 5.1307 -1.2657 -3.86289
3226 2 4.50768 -0.225131 -3.4114
3475 2 5.08552 -0.21152 -2.86482
330 1 5.48909 -1.38596 -2.84391
1500 1 5.89933 -0.583035 -4.03453
721 1 6.6296 -0.177511 -3.78979
2898 2 6.74202 -1.32461 -3.44756
336 1 6.01215 -0.643791 -3.22477
1124 1 -6.74154 -6.54714 -1.66746
896 1 -5.98717 -6.245 -2.082
231 1 -6.87714 -6.91035 -2.43236
3392 2 -5.46031 -7.0374 -2.6191
3237 2 -4.96358 -6.52749 -2.10726
2932 2 -4.70814 -6.13968 -1.53712
1402 1 -5.65052 -5.66641 -1.54722
2460 1 -3.80764 -6.62846 -2.38317
103 1 -3.61962 -6.67685 -1.49122
2388 1 -3.72884 -5.7712 -2.2835
2386 1 -2.95322 -6.24424 -2.04814
2376 1 -2.27339 -5.77241 -1.49556
188 1 -2.29138 -6.3065 -2.53936
1858 1 -1.76918 -5.71893 -2.17997
122 1 -1.56987 -6.55229 -2.11436
3570 2 -0.554699 -5.75824 -2.22761
2094 1 -0.520044 -6.88922 -1.71314
1869 1 0.555671 -6.33482 -2.69759
1391 1 0.122143 -6.68399 -2.17364
1100 1 0.926275 -5.80766 -2.13075
3409 2 1.69439 -6.62483 -2.45222
179 1 1.09698 -6.81207 -1.62828
3439 2 2.295 -6.48828 -1.76084
1153 1 3.40314 -6.78669 -1.53662
618 1 3.35707 -6.11196 -2.12412
406 1 4.36546 -6.01062 -2.16176
2454 1 4.07073 -5.73646 -1.45553
1541 1 5.02969 -6.6108 -2.38384
2588 1 5.0154 -5.88032 -2.82537
484 1 5.60052 -6.0911 -1.89715
2955 2 4.66573 -6.91507 -1.59788
3152 2 6.3828 -5.89995 -2.50097
630 1 6.65977 -6.63168 -1.61678
2498 1 6.46007 -7.01699 -2.36688
1923 1 5.9587 -6.77473 -1.80842
705 1 -6.46932 -4.41726 -2.22609
624 1 -6.15442 -5.08542 -2.41745
3501 2 -6.70417 -5.23591 -1.6294
475 1 -5.62708 -4.51769 -1.54857
1401 1 -5.33278 -5.44848 -2.17977
3140 2 -4.96454 -4.35243 -2.73987
2275 1 -4.8679 -4.91294 -1.71385
2091 1 -4.13059 -4.53868 -1.75228
2658 1 -4.4207 -5.2314 -2.14556
789 1 -3.94083 -4.81732 -2.67246
2111 1 -3.4595 -4.27903 -2.6709
127 1 -3.50508 -5.00668 -1.50676
2750 2 -2.89242 -5.2174 -2.55782
2753 2 -2.47565 -4.83091 -1.83991
1006 1 -0.884603 -4.82286 -1.59949
1104 1 -1.36391 -4.95298 -2.27811
1185 1 -0.380306 -4.3702 -2.18383
3186 2 -0.00603545 -5.4153 -1.70964
2130 1 0.166061 -4.79432 -2.69343
1499 1 1.39335 -4.51753 -1.62697
207 1 0.82766 -4.78881 -2.12455
3253 2 1.66927 -4.45965 -2.68614
2405 1 1.80977 -5.57017 -2.69369
1024 1 1.35406 -5.28037 -1.5565
2446 1 1.99299 -5.11758 -1.957
2334 1 2.70255 -5.30221 -2.3519
2188 1 3.17341 -4.37002 -2.49529
220 1 3.27556 -4.55171 -1.61359
1821 1 3.49864 -5.37709 -1.90592
3476 2 4.30624 -4.91112 -2.36866
828 1 5.47494 -5.36119 -2.36923
1067 1 5.06485 -5.6429 -1.67337
3124 2 4.67884 -4.49365 -1.83215
3529 2 6.83179 -5.54974 -2.02282
1751 1 6.30176 -4.59448 -2.6337
1710 1 5.83429 -4.76483 -1.92234
66 1 6.85682 -4.33733 -2.01364
1765 1 -6.06954 -3.76641 -1.56956
1154 1 -6.92236 -3.79785 -1.42547
2857 2 -6.77442 -3.29828 -2.62675
2937 2 -6.81764 -3.03448 -1.89347
246 1 -5.72734 -3.72767 -2.38279
3511 2 -4.53644 -3.62744 -2.14398
1935 1 -5.36961 -3.15639 -1.78885
1240 1 -4.94761 -3.03934 -2.78891
2768 2 -4.09792 -3.50873 -1.59098
240 1 -3.23361 -4.19893 -1.65401
2715 1 -3.31277 -3.48772 -2.20125
755 1 -2.53294 -3.65675 -2.13392
213 1 -2.46004 -3.10031 -1.42859
1698 1 -1.24047 -4.13437 -2.33574
761 1 -1.09696 -3.66479 -1.84122
788 1 -1.69704 -3.16288 -2.27151
3567 2 -0.0418461 -3.35318 -2.30017
973 1 0.533592 -4.03157 -1.46217
3361 2 0.403813 -2.90349 -1.9201
262 1 0.657795 -4.07818 -2.48948
659 1 1.24906 -3.6191 -1.98158
1799 1 1.66014 -2.96845 -1.81051
3489 2 2.21191 -4.0037 -2.27142
3018 2 2.64799 -3.62267 -1.6299
1727 1 2.23952 -2.87242 -2.28771
534 1 3.66073 -3.77772 -2.54513
2404 1 3.79351 -3.93433 -1.76643
1627 1 4.2524 -3.19793 -1.54996
1898 1 3.59532 -3.00071 -2.19254
121 1 4.65498 -3.60452 -2.52947
1950 1 5.52762 -3.79332 -2.37712
1949 1 5.07967 -3.16794 -1.78663
99 1 6.22621 -3.77164 -1.89747
643 1 6.19864 -2.85383 -1.7363
1522 1 5.85182 -2.97055 -2.46059
1860 1 -6.65087 -1.54361 -1.44464
1429 1 -5.80594 -1.81215 -2.25997
3028 2 -6.3549 -2.64333 -1.50651
1493 1 -6.65475 -2.02 -2.44084
1818 1 -5.66172 -2.67914 -2.39971
2918 2 -4.63984 -1.5634 -2.50876
2455 1 -4.88919 -2.50659 -1.79896
1407 1 -5.15501 -1.70893 -1.47321
197 1 -3.702 -2.35413 -2.25008
293 1 -4.2101 -2.77729 -2.6636
2486 1 -4.01107 -2.3356 -1.56404
3106 2 -2.15451 -2.20257 -2.22286
2948 2 -2.66782 -2.62359 -2.7307
2503 1 -3.14433 -2.77335 -1.65003
768 1 -3.14117 -1.6398 -2.17699
2214 1 -0.908586 -2.63978 -2.1034
3163 2 -1.50201 -1.86309 -1.71673
130 1 -0.634229 -1.64999 -2.32042
1804 1 -0.37257 -2.28985 -1.47914
87 1 0.25575 -1.73747 -2.01424
584 1 0.509295 -2.16226 -2.66339
69 1 1.18421 -2.6426 -2.54945
2185 1 1.91728 -2.12606 -1.80714
1919 1 1.09484 -1.73737 -2.20999
1676 1 2.68594 -2.10395 -1.92932
2508 1 3.05172 -2.50137 -2.48987
812 1 4.17497 -2.19809 -1.8594
1776 1 3.67943 -1.57206 -2.46553
3239 2 4.82829 -2.30422 -2.72882
3063 2 5.26184 -2.23516 -2.04285
1382 1 6.78389 -2.17181 -1.52497
2350 1 6.57369 -1.85485 -2.18436
3319 2 -6.60682 -0.534503 -2.28323
3197 2 -6.44239 -0.0999145 -1.76525
2299 1 -5.97758 -1.21326 -1.65577
3466 2 -7.06783 -1.1153 -2.75408
2626 1 -5.19718 -0.746635 -1.58808
200 1 -4.73887 -0.146784 -1.99316
2470 1 -5.59418 -0.865821 -2.47722
275 1 -4.16594 -0.172181 -2.69133
3175 2 -4.2252 -1.28154 -1.90902
2555 1 -3.48293 -0.269815 -2.2658
556 1 -3.31953 -0.972926 -2.63255
2043 1 -2.17579 -1.14506 -2.4044
2176 1 -2.60493 -0.230339 -1.67584
1748 1 -2.78024 -0.829817 -2.0783
579 1 -2.636 -1.37921 -1.54736
2173 1 -1.04285 -0.709633 -2.36593
1650 1 -1.73485 -0.790866 -1.90791
2374 1 -0.63602 -0.738953 -1.62064
3183 2 0.00351856 -0.841424 -2.76837
3502 2 0.422121 -0.428546 -2.31375
345 1 0.659255 -1.13335 -1.48167
1486 1 1.48214 -1.04852 -2.34256
2650 1 1.52732 -1.24115 -1.47437
2258 1 1.87207 -0.260459 -2.57099
2841 2 1.00581 -0.195514 -1.83226
2922 2 2.55335 -1.17479 -2.26305
3181 2 3.11157 -0.8788 -1.7906
92 1 4.35404 -1.35683 -1.8014
2174 1 4.12284 -0.45558 -2.40815
2198 1 4.5162 -1.07184 -2.52643
45 1 4.81223 -0.564438 -1.57677
1622 1 5.25989 -0.981688 -2.1205
80 1 6.12737 -1.17064 -2.28256
435 1 6.59925 -1.28614 -1.58456
2400 1 6.09945 -0.422957 -1.54078
1361 1 6.17885 -0.325553 -2.3915
731 1 -6.2677 -5.75086 -0.237121
1615 1 -6.47549 -6.05816 -0.980387
3066 2 -6.53429 -6.97215 -0.588624
3456 2 -5.97165 -6.94367 -0.0161107
154 1 -5.03851 -6.99568 -0.896302
580 1 -4.77622 -6.40454 -0.162498
867 1 -5.49527 -6.02247 -0.60845
342 1 -5.77659 -6.54409 -1.13499
2566 1 -4.17242 -6.73107 -0.677436
2856 2 -4.32077 -5.81519 -1.00995
2333 1 -3.24881 -6.91164 -0.790446
2241 1 -3.31508 -6.20936 -0.392515
2730 1 -3.20923 -5.94021 -1.3008
3435 2 -2.0109 -6.70754 -0.889462
1614 1 -2.61046 -6.83871 -0.077286
3523 2 -1.66352 -6.38354 -0.342459
447 1 -1.16447 -6.0868 -1.37853
1158 1 -0.514451 -6.21298 -0.914957
1079 1 -0.237653 -6.89336 -0.0182267
2236 1 0.194914 -6.45602 -1.39158
2634 1 0.0679798 -6.0538 -0.310102
2564 1 1.01714 -6.03606 -1.26735
3373 2 0.961995 -6.76999 -0.10354
1219 1 0.919387 -5.77513 -0.497521
1909 1 1.74518 -6.27669 -0.766865
2410 1 2.42135 -6.24157 -0.0662885
1166 1 2.87861 -6.76914 -0.768099
2960 2 2.62408 -5.92875 -1.3619
884 1 2.1733 -6.99351 -0.361195
732 1 3.35696 -6.51471 -0.00160258
261 1 4.47148 -6.02181 -0.302961
2037 1 3.75051 -6.33215 -0.870959
2744 2 5.18864 -6.6098 -0.96172
3506 2 5.54836 -6.18967 -0.439971
1490 1 6.20716 -5.99407 -1.1956
1984 1 6.88997 -5.72241 -0.831082
1831 1 6.66434 -6.5359 -0.0902701
821 1 6.49265 -6.6719 -0.877527
2879 2 5.9659 -5.68362 -0.0171732
2757 2 -6.37516 -4.92805 -0.975697
3443 2 -5.91707 -4.34545 -0.612555
2164 1 -4.71029 -4.69364 -0.000567482
25 1 -5.32684 -5.26382 -0.889004
2642 1 -4.75394 -4.67706 -0.907408
2356 1 -4.03026 -4.35252 -0.694465
2784 2 -4.0193 -5.32477 -0.468237
1310 1 -2.86378 -4.91792 -0.763385
2908 2 -2.06192 -4.2954 -1.39659
22 1 -2.66494 -5.6555 -0.664635
2009 1 -2.32193 -4.43505 -0.161639
1380 1 -1.55861 -5.34734 -1.40464
86 1 -0.972588 -5.16118 -0.77183
907 1 -1.84154 -5.21797 -0.484452
1421 1 -0.888852 -4.73014 -0.000227609
3418 2 0.253809 -5.12468 -1.14187
3479 2 1.44271 -4.29997 -0.0398602
2530 1 1.85061 -5.45681 -0.723067
3064 2 0.933666 -4.60481 -0.664566
1603 1 2.5433 -4.7569 -1.40706
1372 1 2.18865 -4.79724 -0.748015
3093 2 3.03171 -5.47786 -0.734342
3431 2 3.5314 -5.21136 -0.153028
1891 1 3.87941 -4.88646 -1.20102
602 1 4.58664 -4.29695 -0.338604
536 1 5.26429 -5.19878 -0.997573
1018 1 4.59644 -5.22916 -0.755062
2180 1 6.58898 -4.4158 -1.06153
2029 1 6.11469 -5.19519 -1.26277
1659 1 6.20376 -4.79385 -0.467516
668 1 6.93361 -5.45833 -0.186167
1824 1 -6.00166 -3.2657 -0.668689
765 1 -6.74869 -3.48771 -0.694699
1731 1 -6.36095 -2.88172 -0.0200142
1535 1 -5.01278 -3.80523 -1.10577
2928 2 -5.53223 -4.19163 -0.0364625
1553 1 -5.24223 -3.00005 -0.963127
2395 1 -5.47488 -2.91372 -0.0666104
3056 2 -3.62488 -3.12895 -0.913074
836 1 -4.38408 -3.49656 -0.0913965
2022 1 -3.19988 -4.22798 -0.713259
1181 1 -2.61409 -3.58404 -0.852847
276 1 -2.67426 -3.67007 -0.102307
2475 1 -2.0036 -3.13905 -0.426351
3536 2 -1.26193 -3.73773 -0.303085
2819 2 -1.48548 -4.06704 -0.893025
633 1 -1.6535 -2.93959 -1.29523
386 1 -0.768337 -3.1105 -1.1976
2683 1 -0.459365 -4.06153 -1.33721
2070 1 -0.0407819 -4.02418 -0.559592
984 1 -0.00615258 -3.44162 -1.12115
1871 1 0.535832 -3.54718 -0.398377
518 1 1.22851 -3.65276 -1.11534
245 1 1.25956 -3.23451 -0.0909835
2466 1 1.86838 -3.14725 -0.913755
235 1 2.43227 -3.96432 -0.391995
511 1 3.20175 -4.21993 -0.903045
1359 1 1.9599 -4.06709 -1.08213
2964 2 3.07379 -3.14581 -1.24031
375 1 2.42297 -3.25154 -0.147163
2217 1 3.98791 -3.91564 -0.827138
3425 2 5.16372 -4.08609 -1.21299
698 1 5.41913 -2.87513 -1.10451
512 1 4.5699 -3.27258 -0.778557
893 1 4.84644 -3.48445 -0.104934
3450 2 5.82799 -3.76632 -0.859731
778 1 6.93483 -4.09046 -0.497319
286 1 6.66507 -2.93078 -1.17115
2817 2 6.23263 -3.49721 -0.125376
3179 2 -6.00083 -2.26279 -0.993917
1212 1 -4.58959 -1.56833 -0.947494
845 1 -4.61319 -2.637 -0.815214
3006 2 -5.59786 -1.79977 -0.512312
1182 1 -3.91601 -1.86194 -0.752289
2540 1 -3.56909 -1.42769 -0.16096
3534 2 -3.32748 -2.67334 -0.343124
1834 1 -3.17195 -1.95101 -1.40986
2292 1 -2.8087 -1.58681 -0.63702
88 1 -2.38231 -2.30316 -1.11118
3168 2 -1.56008 -1.59762 -1.06622
909 1 -1.73807 -2.33843 -0.285064
160 1 -0.898357 -2.38189 -0.732227
2329 1 -0.0253496 -2.69165 -0.614834
1075 1 -0.18248 -1.43746 -1.32808
1673 1 -0.561778 -2.05761 -0.0283895
228 1 0.144358 -1.892 -0.678311
480 1 0.345542 -1.46591 -0.0544931
3332 2 0.706783 -2.58081 -1.40033
3586 2 1.11428 -2.19761 -1.00998
2790 2 1.37979 -1.86302 -0.395951
2321 1 2.27862 -2.17091 -1.06589
1496 1 2.84666 -1.94073 -0.173634
65 1 2.30822 -2.42671 -0.15705
1843 1 3.45015 -1.47283 -0.477422
3408 2 3.41695 -2.80711 -0.548471
2494 1 3.43943 -1.90674 -1.35905
3096 2 4.07759 -2.53503 -0.1771
2011 1 4.37017 -1.42388 -0.857369
1311 1 4.54011 -2.37877 -1.10438
2060 1 5.36032 -2.77576 -0.131759
3426 2 5.47719 -1.80475 -1.35946
1068 1 5.17647 -2.00473 -0.253911
1467 1 6.95989 -1.76985 -0.811767
414 1 6.14266 -2.5341 -0.907971
2183 1 6.1897 -2.36455 -0.140957
1743 1 6.95064 -2.62658 -0.429367
405 1 -6.62313 -0.989071 -0.879862
1171 1 -6.56037 -0.0386633 -0.583994
102 1 -6.56997 -1.3683 -0.0474475
144 1 -5.20535 -0.429168 -0.224861
367 1 -4.73833 -0.76788 -0.886085
1839 1 -5.7762 -0.695948 -0.735857
2427 1 -4.31047 -0.133802 -0.095275
1334 1 -4.26281 -0.912449 -0.20422
3013 2 -3.73388 -0.935182 -1.36689
2999 2 -3.40245 -0.453006 -0.836082
2240 1 -2.31155 -0.805819 -0.963134
1981 1 -2.82042 -1.05377 -0.0173113
1203 1 -2.09384 -0.620857 -0.0358176
2847 2 -2.90178 -0.0175965 -0.435577
3336 2 -0.967543 -1.27283 -0.718795
608 1 -1.50406 -0.259694 -0.60839
2534 1 -1.19699 -0.110226 -1.34823
2247 1 -1.80243 -1.36002 -0.0178326
3196 2 -0.510327 -0.76045 -0.195358
1988 1 0.61467 -1.01673 -0.580914
2601 1 0.171445 -0.530785 -1.13403
1056 1 1.58429 -0.861343 -0.660083
2665 1 0.703113 -0.287621 -0.387781
1035 1 2.5659 -1.38153 -0.80086
2723 1 2.44024 -0.0224148 -0.119874
1163 1 2.3004 -0.0334962 -1.11487
2597 1 2.44576 -0.65795 -0.491228
211 1 2.17826 -0.843626 -1.38837
2990 2 3.33364 -0.193463 -0.82889
3039 2 3.6367 -0.701858 -1.2795
3413 2 4.10793 -0.242872 -0.427149
454 1 4.88887 -1.27571 -0.0886201
639 1 5.24159 -0.666642 -0.629647
1884 1 6.87598 -0.547954 -1.28352