ITEM: TIMESTEP
0
ITEM: NUMBER OF ATOMS
3594
ITEM: BOX BOUNDS pp pp pp
-7.1497272407130250e+00 7.1497272407130250e+00
-7.1497272407130250e+00 7.1497272407130250e+00
-7.1497272407130250e+00 7.1497272407130250e+00
ITEM: ATOMS id type x y z
1317 1 -6.56533 -6.28342 -5.81663
1273 1 -6.1967 -5.73696 -6.52248
1264 1 -6.65182 -6.66664 -6.64212
2619 1 -5.91826 -7.07897 -6.10711
2750 2 -4.73166 -6.18656 -5.99285
3381 2 -5.38503 -6.40947 -6.56925
2381 1 -3.58633 -6.34892 -6.50283
1563 1 -4.15415 -7.04619 -6.32096
3177 2 -2.73844 -7.136 -6.28712
2829 2 -2.37439 -6.85022 -5.74077
99 1 -2.40326 -5.9819 -6.7411
2328 1 -3.10449 -6.18789 -5.87263
2879 2 -1.83206 -6.49981 -5.78133
1635 1 -0.726691 -6.60609 -6.43938
635 1 -1.79606 -6.57042 -6.97537
14 1 -1.25219 -5.97512 -6.58159
2828 2 -0.242843 -5.8981 -7.0363
785 1 0.225835 -6.84366 -6.73619
374 1 0.22894 -6.54411 -5.92348
2442 1 1.32162 -7.09078 -5.99438
976 1 0.866277 -6.4593 -6.38816
3268 2 1.5666 -6.92473 -7.12392
3138 2 2.53144 -6.09435 -6.18935
3302 2 2.1113 -6.49421 -6.72827
1394 1 3.32041 -6.75339 -6.22734
1818 1 3.84415 -6.09354 -6.3683
1064 1 3.84711 -6.20642 -7.1214
278 1 5.50916 -5.85975 -7.09217
587 1 5.81828 -6.09112 -6.39551
3151 2 4.64309 -7.03372 -6.13917
1194 1 4.6045 -5.98188 -6.55579
2604 1 5.63687 -6.97691 -6.50256
1685 1 6.52804 -6.48042 -5.73643
2359 1 6.50582 -6.73817 -6.50036
3463 2 -6.88444 -5.04116 -5.99835
2517 1 -6.24113 -4.45346 -6.71353
659 1 -5.40071 -5.32684 -6.90099
2025 1 -5.42754 -4.35483 -5.89723
1650 1 -5.76291 -5.23258 -6.12642
1781 1 -4.79885 -5.05514 -6.29124
2741 2 -5.12305 -4.37738 -6.90853
154 1 -4.11431 -4.56067 -6.97336
168 1 -3.98624 -5.50165 -6.74734
2221 1 -3.57311 -4.99974 -6.32642
3039 2 -2.52305 -4.79788 -6.88436
2411 1 -2.41669 -5.52226 -5.91066
167 1 -3.0607 -5.63575 -6.37852
3478 2 -1.81598 -4.36465 -6.37322
622 1 -1.14839 -5.25847 -6.99873
2065 1 -0.938821 -5.1869 -5.9957
237 1 -1.65519 -5.294 -6.15337
1404 1 -0.569632 -4.31736 -6.09134
2974 2 -0.0153587 -5.48578 -6.41952
2730 1 -0.633328 -4.80236 -7.12998
3172 2 0.497281 -5.10693 -6.07805
138 1 1.77292 -5.09956 -6.70038
1144 1 1.06775 -4.81113 -6.78637
201 1 1.44131 -5.66448 -6.19082
1387 1 3.07627 -4.68596 -6.28838
925 1 2.19034 -4.89348 -5.7996
640 1 2.52247 -5.14818 -6.83159
2122 1 3.21341 -5.65906 -6.79655
1921 1 3.40629 -5.03342 -7.14222
516 1 3.94478 -4.39435 -6.07052
2214 1 3.93137 -5.37699 -6.28271
2869 2 4.66904 -4.97213 -7.12506
3174 2 5.17744 -4.39936 -6.46368
898 1 5.78727 -4.88976 -7.13145
2037 1 5.13559 -5.59495 -6.11002
3060 2 6.91018 -5.47103 -6.6583
1506 1 6.45966 -4.6041 -5.82101
383 1 5.88503 -5.32368 -6.30207
582 1 -6.83274 -3.92624 -6.46048
479 1 -6.03381 -3.52479 -6.20971
3293 2 -4.63639 -3.86667 -6.47933
110 1 -5.72295 -3.19052 -7.00624
2548 1 -5.2228 -3.08423 -5.94929
2953 2 -3.77135 -3.48775 -6.00152
436 1 -3.41165 -4.11611 -6.80436
1395 1 -3.27664 -3.28193 -6.94108
1570 1 -2.79882 -4.0744 -5.89602
1283 1 -2.04621 -3.48708 -6.93923
669 1 -2.55254 -3.23954 -6.39535
592 1 -0.896518 -3.76865 -6.7884
82 1 -1.4685 -2.93327 -6.17978
1640 1 -1.06991 -2.98596 -6.95404
2168 1 -0.592899 -3.19132 -6.18591
2245 1 0.0981626 -4.15135 -6.53315
1480 1 0.156137 -3.70658 -5.8599
3332 2 0.418898 -3.0528 -6.71477
1409 1 1.59647 -4.16357 -6.05151
2172 1 0.964698 -4.06103 -6.54961
2128 1 1.6458 -3.25558 -6.22443
280 1 1.55421 -3.19492 -7.03773
3345 2 2.37401 -3.95202 -6.70355
3135 2 2.93755 -3.52184 -6.2709
3001 2 3.24827 -2.94656 -5.71984
1285 1 3.4787 -4.07044 -6.7741
2059 1 4.40777 -3.58109 -6.78019
38 1 4.35797 -2.87844 -6.06054
563 1 3.77567 -3.19749 -7.01185
3148 2 5.47756 -4.0658 -5.8495
330 1 5.10365 -2.99466 -6.27197
1113 1 6.62533 -4.28119 -6.56435
454 1 6.15809 -3.49633 -6.74596
538 1 6.83625 -3.55033 -6.09235
1441 1 -6.18314 -1.56141 -6.59214
2894 2 -6.72438 -2.43343 -6.12233
3438 2 -7.05511 -2.73021 -6.7725
1368 1 -6.06305 -2.20092 -7.08257
2403 1 -4.86922 -1.89919 -6.33952
2610 1 -5.44196 -2.35796 -6.45136
2083 1 -3.81456 -2.42406 -7.07593
2558 1 -4.48086 -2.66818 -6.49635
789 1 -4.37658 -1.94189 -5.72094
327 1 -3.61298 -1.90508 -5.81131
1446 1 -2.17431 -2.62643 -5.8514
2181 1 -2.61226 -1.89949 -6.04098
1582 1 -3.24062 -2.37961 -6.38315
2101 1 -3.03949 -1.59729 -6.77692
3592 2 -1.96134 -2.11441 -6.87072
3465 2 -1.62437 -1.7718 -6.33117
3425 2 -1.16538 -1.51342 -5.84051
697 1 -0.555064 -2.14627 -7.03371
1099 1 -0.583061 -2.31603 -6.23967
2988 2 0.595183 -2.48845 -6.19082
1069 1 0.0946641 -1.5461 -6.38686
1152 1 1.72826 -1.81865 -6.65579
216 1 1.92257 -2.64019 -6.46275
1077 1 1.30638 -2.42837 -7.13908
1396 1 2.18722 -1.74598 -5.95247
117 1 2.70061 -2.55794 -6.53508
613 1 3.3365 -2.11895 -6.26609
1900 1 3.31105 -2.47199 -7.10774
1741 1 4.05872 -1.54376 -6.98605
1120 1 4.09069 -2.35934 -6.6889
100 1 3.878 -1.67559 -5.75638
3339 2 5.17829 -2.13763 -6.88787
3484 2 5.48042 -1.5831 -6.33784
783 1 4.57758 -2.07 -5.95383
2180 1 6.55911 -1.95821 -6.60335
3178 2 5.97954 -1.44061 -5.72948
653 1 6.07085 -2.62809 -6.27855
2902 2 -6.28711 -0.251402 -6.58638
3311 2 -6.49229 -0.686549 -7.14026
2566 1 -6.91491 -1.37506 -6.30881
1093 1 -5.55042 -1.34783 -6.32108
2438 1 -4.58848 -0.0590981 -6.96003
2699 1 -5.35958 -0.668098 -6.54976
897 1 -5.03125 -0.0831775 -6.07797
3383 2 -4.16161 -1.26726 -6.494
3213 2 -4.10315 -0.610813 -6.03595
2758 2 -4.43976 -1.33726 -7.03493
3196 2 -3.50335 -0.858874 -6.2285
770 1 -2.54409 -0.676098 -6.36382
1888 1 -2.9439 -0.411064 -7.06971
98 1 -2.27629 -1.09005 -6.80498
2538 1 -1.47401 -0.343688 -6.32714
672 1 -0.81457 -0.140397 -7.12984
2423 1 -1.03198 -1.00518 -6.95219
2341 1 -0.311271 -0.74099 -6.595
433 1 0.251018 -0.350854 -5.78504
1045 1 0.820919 -0.973579 -5.89543
1507 1 1.80775 -1.02302 -6.5558
1686 1 0.959878 -1.2807 -6.64893
3541 2 0.822074 -0.0441792 -6.73081
1975 1 2.57751 -0.0321291 -5.8073
2365 1 2.3316 -0.128584 -6.46418
3319 2 2.79591 -1.42787 -6.81944
3556 2 3.30949 -0.909232 -6.59441
3173 2 3.44645 -0.612049 -5.86755
2375 1 4.30387 -1.22327 -6.2804
1867 1 4.16286 -0.295681 -7.02203
102 1 4.6405 -0.427218 -6.13335
1133 1 5.35249 -0.538506 -6.54689
2376 1 6.99264 -0.286568 -6.17502
511 1 6.51438 -0.924557 -6.59372
1370 1 5.91007 -0.0745919 -5.77763
1435 1 6.47407 -0.0726028 -6.90522
2182 1 -6.57614 -5.86339 -4.98913
3585 2 -6.10149 -6.80741 -4.80232
1555 1 -4.93293 -6.68205 -4.96437
1100 1 -5.56983 -5.97553 -5.13269
2047 1 -4.32681 -6.22795 -4.49853
2374 1 -3.77913 -6.62856 -5.62003
1244 1 -4.11736 -6.79098 -4.97512
668 1 -2.71129 -6.05765 -5.02125
2599 1 -3.16388 -6.79211 -4.89941
191 1 -1.06441 -7.08672 -4.55039
3216 2 -1.1429 -5.83682 -4.40342
2748 2 -1.41228 -6.21002 -5.07548
1547 1 -0.267293 -6.15624 -5.43266
1947 1 -0.47777 -6.88651 -5.689
1117 1 0.0225365 -6.45143 -4.69942
3100 2 0.857546 -6.94688 -4.7311
715 1 0.701371 -6.10588 -5.48913
2322 1 1.54954 -6.37357 -5.68097
1032 1 2.82823 -6.94811 -5.55639
354 1 2.13015 -6.24187 -4.89805
2269 1 3.12584 -6.63414 -4.8425
498 1 2.6167 -6.14979 -4.37676
812 1 2.03847 -7.0936 -5.27866
177 1 3.82051 -6.72995 -5.51997
1058 1 3.66195 -5.98808 -4.42961
444 1 4.47061 -6.42674 -4.84812
1988 1 4.29138 -5.94991 -5.51229
3428 2 5.10207 -6.68666 -5.69668
2952 2 5.50684 -6.20966 -5.30927
1590 1 4.89414 -6.99702 -4.61434
2479 1 6.68432 -5.77814 -5.5763
163 1 6.9154 -7.03852 -4.51625
2611 1 6.28498 -6.97621 -5.10518
3355 2 5.8915 -6.06127 -4.51936
1136 1 7.056 -6.26265 -4.81726
2033 1 -5.85546 -5.61768 -4.33249
3407 2 -6.33595 -4.75022 -5.33551
652 1 -6.80537 -5.41259 -4.36327
505 1 -5.27693 -5.09725 -5.46391
3285 2 -5.84624 -4.6953 -4.75002
2503 1 -5.01821 -5.44259 -4.65671
1018 1 -4.37218 -4.49739 -4.93821
2075 1 -4.05949 -4.46761 -5.68978
3375 2 -4.06662 -5.60863 -5.34329
2873 2 -3.55911 -5.34144 -4.84024
353 1 -2.83157 -4.91558 -5.58695
1914 1 -2.20048 -4.69599 -5.17746
1802 1 -2.16172 -5.41194 -4.71006
3283 2 -3.18666 -4.75914 -4.32502
380 1 -1.32063 -4.82245 -4.35535
6 1 -1.57225 -5.17413 -5.29089
2685 1 -1.02207 -4.813 -5.1468
584 1 -0.140013 -4.48726 -5.18317
1866 1 -0.278151 -5.38721 -5.41024
1632 1 0.537257 -5.40498 -4.78752
2339 1 0.374023 -4.48226 -4.47631
1417 1 1.58069 -5.60355 -5.03216
3280 2 0.850941 -4.58267 -5.36431
3243 2 2.97737 -5.65326 -5.62136
367 1 2.21403 -4.71537 -4.80546
2104 1 2.95076 -4.30579 -5.47522
2807 2 3.5513 -5.22156 -5.24437
2111 1 4.48462 -5.11493 -5.60989
1033 1 4.52977 -4.43635 -5.23929
3256 2 3.60504 -5.02626 -4.45021
2472 1 5.18009 -5.09541 -5.11187
279 1 4.85268 -5.57261 -4.66554
2082 1 5.9464 -4.78454 -4.61203
1574 1 6.05006 -5.16445 -5.51308
829 1 6.83252 -4.89425 -4.96161
2560 1 -6.33224 -3.5991 -5.55616
2672 1 -6.68459 -3.84782 -4.51932
621 1 -7.13448 -3.92154 -5.35994
288 1 -7.07072 -2.91631 -5.24101
1096 1 -6.30939 -3.20779 -4.82218
226 1 -5.11684 -4.0715 -5.29596
2755 2 -5.324 -4.15494 -4.30907
2369 1 -5.43281 -3.3867 -5.27761
1270 1 -4.07006 -3.92884 -4.38829
1204 1 -4.38856 -3.4949 -5.05921
2625 1 -3.45933 -4.09236 -5.06447
2743 2 -3.36369 -3.08311 -5.49855
1422 1 -2.48137 -4.01361 -4.63452
324 1 -2.37846 -3.49469 -5.31516
1415 1 -3.10753 -3.47645 -4.363
578 1 -2.36473 -3.20665 -4.43345
3571 2 -1.05753 -3.64508 -5.12204
3232 2 -1.48858 -3.9157 -5.69779
3298 2 -0.788951 -3.10778 -4.42463
210 1 -0.585165 -4.27096 -4.4902
2637 1 0.296231 -3.43462 -4.86998
3117 2 1.30695 -4.16209 -4.86326
2241 1 1.69462 -2.8604 -4.95498
361 1 1.16118 -3.23754 -5.46982
1602 1 0.904886 -2.97403 -4.46171
1162 1 2.88578 -4.0106 -4.73027
2527 1 2.16562 -3.88387 -5.39209
1526 1 2.53166 -3.04664 -4.78944
1964 1 3.77914 -4.05549 -5.27711
1183 1 3.7009 -3.74542 -4.55782
2267 1 4.51603 -3.63557 -5.6506
2352 1 5.13452 -4.23753 -4.59998
1969 1 4.88631 -3.34206 -4.8401
3347 2 5.90925 -3.69159 -5.32536
3461 2 6.38778 -3.62479 -4.80196
2965 2 -5.87728 -2.25359 -5.61211
2816 2 -6.18627 -1.77669 -5.23977
2260 1 -4.56529 -2.67245 -5.36188
462 1 -4.96045 -2.79136 -4.37491
2922 2 -5.49034 -2.12676 -4.92688
854 1 -4.32835 -1.7139 -4.75649
3090 2 -3.05036 -2.0866 -4.56033
1479 1 -1.99829 -1.99017 -5.24541
3027 2 -2.4868 -1.59544 -4.40767
919 1 -2.08386 -2.69606 -5.0027
3314 2 -3.21854 -2.69241 -4.96557
568 1 -1.25064 -2.70044 -5.41915
1919 1 -1.69363 -2.64629 -4.32399
1724 1 -1.17681 -1.86252 -4.58494
995 1 -0.26061 -1.5965 -4.52507
802 1 -0.556038 -2.05889 -5.18066
940 1 -0.112346 -2.79633 -5.45109
1016 1 0.171913 -1.59277 -5.61698
654 1 0.571037 -2.28573 -4.78195
2852 2 1.13575 -2.06595 -5.67817
3488 2 1.52882 -1.76588 -5.05774
1302 1 2.947 -2.04824 -4.66887
2409 1 2.85956 -2.16097 -5.50343
2011 1 2.06879 -2.62993 -5.70313
1528 1 2.08308 -2.43815 -4.29214
3276 2 1.98702 -1.46294 -4.499
3411 2 3.78219 -2.84159 -5.22284
3235 2 4.36025 -2.43676 -4.90366
928 1 3.58425 -1.60217 -4.75529
1596 1 5.43086 -2.58928 -4.62376
1436 1 5.40851 -2.71509 -5.4181
452 1 5.5314 -1.78305 -4.93798
1247 1 7.01048 -1.89908 -5.39515
1603 1 6.37992 -2.62733 -5.56896
2179 1 6.10673 -1.65881 -4.35951
2489 1 6.153 -2.27599 -4.951
121 1 7.06036 -2.33073 -4.67699
2416 1 -6.52899 -1.04521 -4.57008
1425 1 -6.11215 -0.912492 -5.71321
524 1 -6.75359 -0.261578 -5.56044
1043 1 -6.86228 -1.09269 -5.45332
202 1 -5.96806 -0.163762 -4.92235
273 1 -4.96437 -1.29732 -5.47832
2094 1 -5.0849 -0.0954914 -4.90467
470 1 -5.43013 -0.64098 -5.58132
3249 2 -5.50479 -1.36059 -4.54237
1838 1 -3.61866 -1.31981 -5.19919
1837 1 -3.85041 -0.708128 -4.60685
448 1 -4.44473 -0.767774 -5.07706
482 1 -3.02036 -0.819393 -4.8125
1313 1 -2.80472 -1.4153 -5.65314
1661 1 -2.03594 -0.584785 -4.91996
62 1 -2.19973 -0.953747 -5.54607
2915 2 -3.17615 -0.192735 -5.71435
441 1 -3.09276 -0.0773392 -4.3024
2792 2 -0.815133 -0.854478 -5.59508
784 1 -1.36015 -1.11546 -4.66446
3279 2 -0.357198 -0.578202 -4.90969
420 1 1.25906 -0.459707 -4.98712
1391 1 0.752661 -1.29442 -4.73592
2294 1 1.61683 -0.845346 -5.62858
679 1 2.22872 -0.213029 -4.74649
35 1 2.3096 -0.816913 -5.42821
994 1 3.20889 -0.954356 -4.7728
1220 1 2.8452 -1.37363 -5.52713
2547 1 3.48557 -0.342686 -4.30429
3186 2 4.12907 -0.249705 -5.26881
877 1 5.16713 -0.652763 -5.56785
2727 1 5.3201 -1.16114 -4.52273
342 1 4.60649 -1.40586 -5.1321
1934 1 5.50882 -0.0108628 -5.07181
2377 1 5.32062 -0.411424 -4.58057
3414 2 6.40574 -0.964949 -5.13535
3328 2 6.8156 -0.37054 -4.79376
1813 1 -6.9239 -6.15058 -3.98897
2898 2 -5.90402 -6.79002 -4.10699
269 1 -5.9504 -6.16064 -2.89357
282 1 -6.75791 -6.61547 -3.20086
2871 2 -5.10591 -6.35992 -3.79774
3387 2 -4.8695 -5.93615 -3.1941
1142 1 -4.67158 -7.13672 -2.99118
1594 1 -4.34249 -6.93727 -3.75296
2386 1 -4.02445 -5.84996 -3.80669
1347 1 -3.77158 -6.4312 -3.02816
2471 1 -3.42274 -6.29467 -4.25136
932 1 -2.41227 -6.14733 -4.12293
1253 1 -3.16528 -5.761 -3.64099
2833 2 -3.22801 -7.12057 -3.71032
2903 2 -2.70226 -6.71022 -3.13727
2281 1 -1.59327 -6.50805 -3.69808
883 1 -1.80931 -7.04956 -4.21014
1848 1 -0.682238 -6.43367 -3.68832
1042 1 -0.723286 -5.82055 -2.94118
1895 1 -0.389134 -6.9279 -4.25471
2350 1 0.429914 -5.89219 -3.98295
51 1 0.0535988 -6.06093 -3.1679
1554 1 0.583718 -6.68765 -3.22263
2941 2 1.21944 -6.49788 -4.25666
2733 2 1.70711 -6.23307 -3.74438
766 1 2.77762 -6.57975 -3.63184
2776 2 1.97178 -5.99913 -3.16079
2421 1 3.29674 -5.89503 -3.4863
3327 2 3.86012 -6.75767 -3.68596
3099 2 4.42197 -6.69778 -3.22792
242 1 4.97661 -6.64404 -3.98365
1452 1 5.04129 -5.87872 -4.02302
1739 1 5.57484 -7.03859 -3.35909
2725 1 5.78333 -5.97385 -3.39146
1465 1 6.34946 -6.79522 -4.02903
1541 1 6.58158 -6.53759 -3.31938
2580 1 -6.25789 -4.65156 -3.80982
125 1 -6.26418 -5.64151 -3.48364
1944 1 -5.13432 -5.10443 -3.81541
1995 1 -4.95262 -4.43025 -3.10975
2164 1 -5.646 -4.81657 -3.23696
2270 1 -4.33432 -5.02045 -4.23049
967 1 -4.3329 -4.33587 -3.59481
2040 1 -3.93168 -5.02662 -3.34794
501 1 -2.0123 -4.46373 -4.25051
1173 1 -2.00374 -5.24803 -3.90454
792 1 -2.73555 -5.17855 -3.1731
158 1 -1.2569 -4.86471 -3.57824
2155 1 -1.68821 -5.70698 -3.31929
2680 1 -1.62096 -5.03744 -2.87962
3555 2 -0.577118 -5.53832 -4.12697
3442 2 -0.298652 -5.04167 -3.57026
2798 2 0.246243 -4.58457 -2.86273
2465 1 1.5162 -5.38374 -4.27872
1821 1 0.731835 -5.05674 -4.03795
2478 1 0.803453 -5.43358 -3.30233
2032 1 1.50772 -4.98147 -3.48912
2675 1 2.68052 -5.31559 -3.92876
2508 1 2.53414 -4.69255 -3.50229
2340 1 3.40839 -5.04711 -3.4697
1851 1 4.23853 -5.65032 -3.74525
2857 2 4.21613 -4.61199 -4.12548
918 1 4.00468 -5.51442 -2.96493
711 1 5.43641 -4.93613 -4.13888
404 1 5.17711 -5.24803 -3.35196
2763 2 4.69092 -4.363 -3.4616
195 1 7.0487 -4.58902 -4.16268
3547 2 6.36334 -5.65085 -4.14731
2088 1 5.8995 -5.1442 -3.43512
3254 2 6.9405 -5.40223 -3.38176
339 1 -6.56914 -3.75034 -3.71735
1708 1 -6.0404 -3.7099 -3.11673
787 1 -5.91542 -2.9573 -4.06505
2627 1 -6.73852 -3.53222 -2.90667
2900 2 -5.11883 -3.56671 -3.82333
2914 2 -4.86507 -3.20882 -3.1095
1489 1 -3.81021 -3.01517 -4.16414
2271 1 -3.83456 -3.5469 -3.5085
3398 2 -2.20602 -3.81784 -3.15842
2779 2 -3.12706 -4.15858 -3.52889
1242 1 -0.929769 -3.99596 -3.71938
2522 1 -1.55157 -3.78714 -4.14667
1082 1 -0.935756 -2.98449 -3.39533
37 1 -0.668599 -3.398 -2.94289
265 1 -0.280691 -3.8092 -3.51704
2634 1 0.360698 -3.70074 -4.24173
1118 1 0.243851 -3.58864 -3.02349
3231 2 1.59935 -3.96698 -4.27295
2136 1 1.50348 -4.22325 -3.05617
926 1 0.808168 -4.287 -3.57196
1994 1 0.919538 -3.30029 -3.69942
947 1 1.29183 -3.46549 -2.93827
3483 2 2.11479 -3.81163 -3.84023
2840 2 2.44466 -3.28283 -3.53823
3366 2 2.97139 -2.98848 -3.02405
1625 1 3.2675 -4.12526 -3.99071
2004 1 3.40473 -4.20308 -3.19111
1948 1 3.30546 -3.08759 -4.11526
1029 1 4.41454 -3.38575 -4.14826
571 1 4.00292 -3.46462 -3.02428
2955 2 5.28755 -3.96494 -3.02892
1868 1 4.89651 -3.0355 -3.62336
1645 1 5.45296 -3.51575 -4.21756
1978 1 5.73889 -3.38762 -3.4573
235 1 6.34028 -4.23091 -3.80037
1990 1 7.02614 -4.17728 -3.47669
318 1 6.44778 -4.04441 -2.90764
3367 2 6.82978 -3.19776 -4.17425
293 1 6.4224 -3.15413 -3.16454
875 1 -6.21479 -2.24644 -4.1359
3588 2 -7.05487 -2.62 -3.61963
2264 1 -7.11722 -1.62191 -4.26313
3072 2 -6.8027 -2.24371 -2.98995
2414 1 -5.3594 -2.24336 -3.65202
2024 1 -5.7602 -1.52846 -3.52982
1584 1 -4.51633 -2.06971 -3.94428
1520 1 -3.80489 -1.65212 -4.09225
1841 1 -4.33053 -1.58812 -3.24914
2806 2 -4.27225 -2.64324 -2.98796
2149 1 -3.37086 -1.6628 -3.41622
2360 1 -2.79118 -2.83188 -3.92398
3147 2 -2.02337 -1.6501 -3.86184
1699 1 -2.6103 -1.89036 -3.04588
2326 1 -3.24641 -2.61141 -3.3465
1319 1 -1.97621 -2.53029 -3.20834
1836 1 -0.965315 -1.91985 -3.5347
3097 2 -0.143692 -2.6097 -4.24884
3210 2 0.0687065 -2.55905 -3.33331
1335 1 1.38166 -2.51382 -3.80368
133 1 0.786618 -1.98508 -3.83679
2253 1 1.38051 -1.48986 -3.60765
3570 2 0.700448 -2.43224 -2.95159
2382 1 1.9048 -1.73325 -2.93137
2657 1 1.80863 -2.52013 -3.07702
2073 1 2.81466 -2.44381 -3.95228
2639 1 2.29274 -2.0846 -3.48418
2695 1 3.23615 -1.50249 -3.05709
485 1 3.58667 -2.13191 -3.92703
1886 1 4.15125 -2.14303 -2.94048
233 1 3.9981 -2.75781 -3.54489
2908 2 4.63737 -2.15084 -4.27487
1084 1 5.81775 -2.80976 -4.03905
2938 2 4.91782 -1.71076 -3.53775
1754 1 6.18822 -2.22072 -3.86408
966 1 6.55073 -1.45336 -3.68788
1289 1 5.8796 -2.59931 -3.15216
1346 1 -6.46085 -1.37894 -3.88368
1400 1 -6.08281 -0.669145 -3.8808
3071 2 -7.06604 -0.099795 -4.25071
447 1 -6.90842 -0.983274 -3.4088
1463 1 -5.90939 -0.681307 -2.93767
3080 2 -4.93151 -0.920342 -4.17216
1350 1 -5.35818 -0.160748 -3.26241
1898 1 -5.13465 -1.33266 -2.96081
3041 2 -4.23393 -0.616306 -3.70029
2821 2 -4.0288 -0.268734 -3.03771
2383 1 -3.07038 -0.848955 -3.95631
625 1 -2.23359 -0.415479 -3.9573
2684 1 -2.93198 -1.06733 -3.17549
1208 1 -1.09716 -0.353086 -4.07575
3531 2 -1.57823 -1.17257 -3.48337
1277 1 -0.22957 -0.293971 -3.11127
1325 1 -0.633828 -0.844926 -3.44869
3167 2 0.0932803 -0.288397 -4.14061
1704 1 0.0966123 -1.33876 -3.64632
32 1 0.602998 -0.805686 -2.90922
959 1 1.57469 -0.516442 -4.23608
1955 1 0.947772 -0.92806 -4.02057
844 1 1.49233 -0.741654 -3.21105
3544 2 2.45167 -1.08256 -3.96453
230 1 2.03567 -0.106067 -3.25301
3551 2 2.90264 -0.663952 -3.55709
1589 1 3.47455 -1.37118 -3.95274
1668 1 4.18464 -0.916005 -4.16763
1132 1 4.38723 -0.465849 -3.24419
1239 1 4.11882 -1.15853 -2.89611
720 1 5.25822 -0.404552 -3.77545
3400 2 5.58323 -1.39496 -3.06776
2644 1 5.97869 -0.519766 -4.06173
2362 1 6.67774 -0.39377 -3.19174
70 1 -7.12399 -6.16429 -2.64841
3194 2 -6.50906 -6.88782 -2.22098
1496 1 -6.5946 -5.85784 -2.21134
2701 1 -4.99834 -6.73171 -2.15235
1119 1 -5.63116 -6.72323 -2.58198
80 1 -5.46857 -6.09668 -2.0013
2347 1 -3.63098 -5.93943 -1.73167
1146 1 -3.94794 -6.76919 -2.33987
1290 1 -4.35914 -6.15036 -1.58591
2749 2 -2.67241 -6.13981 -2.62449
3130 2 -2.05259 -5.95333 -2.30237
1260 1 -3.22859 -6.74877 -1.93532
2557 1 -2.46818 -6.9577 -1.51635
2843 2 -1.62879 -5.86555 -1.6339
2461 1 -0.922658 -6.90417 -2.04092
275 1 -1.21806 -6.52234 -2.84225
2539 1 -1.94385 -7.08516 -2.25373
2274 1 -0.260795 -5.89778 -2.08081
3087 2 -0.194525 -7.09839 -2.72156
1088 1 0.388445 -5.77128 -2.49214
3110 2 0.369981 -6.91533 -2.10876
1276 1 1.16713 -6.01891 -2.38923
748 1 1.19529 -6.83977 -2.71675
862 1 1.92553 -6.5703 -2.11608
3014 2 0.847847 -6.42407 -1.47456
2222 1 2.88604 -6.37257 -1.99169
1667 1 2.80167 -6.67205 -2.81627
1258 1 2.51572 -5.88503 -1.47367
360 1 2.13928 -7.10858 -2.71788
978 1 3.52691 -6.93154 -2.32138
2137 1 4.46644 -7.13813 -2.10012
1516 1 4.11097 -6.19228 -1.64376
591 1 3.78713 -6.21636 -2.46872
2983 2 4.99245 -6.25571 -2.69043
2824 2 5.31292 -5.94068 -1.94664
2716 1 6.5016 -6.15331 -2.21415
593 1 7.05299 -5.89917 -1.45691
2002 1 6.0256 -6.66114 -2.72406
1960 1 6.17823 -5.7494 -2.69183
2254 1 5.97347 -6.61351 -1.69763
84 1 -5.91593 -5.61588 -1.63184
3566 2 -6.58158 -4.60709 -2.52121
1487 1 -6.8367 -5.16467 -1.61187
3433 2 -7.09788 -4.95541 -2.78601
1263 1 -5.69895 -5.27754 -2.49044
3330 2 -4.55416 -5.52903 -2.56326
1061 1 -5.45233 -4.73002 -1.80719
794 1 -3.63187 -4.42663 -2.56219
3495 2 -4.46077 -4.97558 -2.08468
1534 1 -3.5358 -5.32429 -2.64652
908 1 -1.99373 -4.73796 -1.79728
1225 1 -2.6226 -4.7562 -2.35416
1938 1 -3.01145 -5.34374 -1.75506
1712 1 -1.35226 -4.3003 -1.79788
426 1 -0.894069 -5.21838 -2.36971
2093 1 -0.400717 -4.55109 -1.71967
2001 1 0.0508244 -5.15646 -1.94632
1894 1 1.83332 -5.46326 -2.0929
913 1 1.2504 -5.02432 -2.50981
1041 1 1.87448 -4.64496 -1.69407
1240 1 0.768578 -5.33426 -1.82603
3218 2 2.95705 -5.67249 -2.73426
3380 2 2.56751 -5.14986 -2.56887
3084 2 3.13346 -5.14174 -2.13406
3371 2 3.59505 -4.77154 -1.50539
1946 1 4.26378 -5.40122 -2.15054
425 1 3.81182 -4.58791 -2.59467
1666 1 4.7427 -4.76579 -1.77957
856 1 5.23951 -4.95714 -2.54636
3103 2 5.57829 -5.31256 -1.56699
1354 1 6.23017 -4.7494 -2.61041
1761 1 6.55846 -5.15085 -1.91678
1544 1 7.08822 -4.44659 -1.4946
688 1 6.22081 -4.38673 -1.90228
3454 2 -6.24747 -3.94539 -1.68408
419 1 -7.13923 -3.2268 -1.51786
1795 1 -6.28009 -3.1679 -2.26967
2413 1 -4.71666 -4.08918 -1.72362
728 1 -5.24962 -3.98599 -2.43517
2688 1 -5.2191 -3.16382 -1.93199
247 1 -4.22703 -3.85849 -2.46334
1251 1 -4.40121 -3.28226 -1.93719
397 1 -3.60194 -3.5118 -1.78843
512 1 -3.55616 -3.67867 -2.48173
678 1 -2.66226 -3.90763 -1.84439
219 1 -2.62945 -2.94748 -1.65662
2584 1 -2.91035 -2.99839 -2.53222
815 1 -0.864362 -4.12953 -2.54569
3156 2 -1.14369 -3.08183 -1.85055
3160 2 -1.69605 -3.55761 -2.38171
1413 1 -0.30926 -3.7503 -1.64217
1418 1 0.300235 -3.12835 -2.05472
3115 2 0.687532 -4.07939 -2.22764
2839 2 1.07759 -3.99817 -1.62762
3480 2 1.69853 -3.58316 -1.44743
1902 1 2.57556 -3.98999 -1.69771
1538 1 2.12114 -4.19588 -2.44227
2057 1 2.79426 -4.05362 -2.64504
1949 1 2.16719 -3.2231 -2.30628
865 1 2.5538 -2.90796 -1.59966
753 1 3.33406 -3.69394 -2.22369
1702 1 4.30503 -3.89069 -2.31397
2314 1 4.15132 -3.29103 -1.98744
153 1 4.51254 -2.87449 -2.67899
64 1 5.09289 -3.95525 -1.53562
3498 2 5.54049 -3.57007 -2.39106
3144 2 5.90607 -3.27387 -1.83585
2429 1 6.96902 -3.55115 -2.31969
3195 2 -6.37319 -1.78449 -2.46469
2356 1 -5.88793 -2.72707 -2.81197
2735 2 -5.87642 -1.5976 -2.09537
1548 1 -6.77287 -2.56826 -1.82
1936 1 -6.81662 -1.58336 -1.4668
130 1 -5.82667 -2.59578 -1.91063
2504 1 -5.21173 -2.15355 -2.61718
543 1 -4.66609 -2.30273 -2.14424
1569 1 -4.23872 -1.84173 -1.65366
2754 2 -3.65583 -2.2748 -2.44904
2951 2 -3.27072 -1.87918 -1.99551
597 1 -2.11232 -2.57723 -2.34346
1427 1 -0.864299 -1.94268 -1.97479
2225 1 -1.33641 -2.20416 -2.66918
2162 1 -1.94061 -1.92454 -2.10447
2422 1 -0.438004 -2.64633 -2.49707
1799 1 -0.0255559 -1.95872 -1.95539
323 1 -0.644375 -1.7679 -2.821
220 1 1.34251 -2.80058 -2.29233
3082 2 0.738419 -1.72784 -2.61986
3048 2 1.26754 -1.44863 -2.01698
184 1 0.723545 -2.46288 -1.6348
708 1 1.70123 -2.43076 -1.69198
1455 1 2.313 -2.26108 -2.35994
2142 1 2.6509 -1.4537 -2.36467
3322 2 3.37525 -2.48747 -2.44443
3203 2 3.79817 -2.2311 -1.81315
312 1 5.36806 -2.50662 -2.67957
176 1 5.28778 -1.68871 -1.70655
1386 1 4.93529 -2.68189 -1.90631
2476 1 4.71805 -1.93783 -2.33555
2119 1 6.44168 -2.68353 -2.46875
2410 1 5.87878 -2.12137 -1.94774
19 1 6.8357 -2.08974 -1.71022
1012 1 6.58899 -1.81967 -2.62954
986 1 -6.69259 -0.38796 -2.81315
1469 1 -6.62713 -0.79355 -1.9056
2553 1 -6.14498 -0.187781 -1.97212
3107 2 -5.41407 -1.16498 -1.59391
2097 1 -4.96192 -0.534587 -2.5097
1928 1 -4.44637 -1.29504 -2.394
224 1 -4.2913 -0.489103 -1.70336
779 1 -3.6436 -0.898368 -1.71544
905 1 -3.64681 -1.14596 -2.58608
1423 1 -2.69784 -1.21965 -2.44248
828 1 -2.74574 -0.287474 -2.76858
1880 1 -1.96032 -0.0462813 -2.18297
321 1 -2.77335 -0.600704 -1.80936
3242 2 -1.33313 -0.947711 -2.21814
3192 2 -1.83071 -0.930788 -2.83328
3069 2 -0.93353 -0.588341 -1.70503
2290 1 -0.73273 -0.0289867 -2.40664
274 1 -0.186949 -1.03236 -2.39017
1390 1 0.433396 -0.695395 -1.85394
907 1 0.199317 -0.215069 -2.45533
2607 1 1.22527 -0.464853 -2.28693
3406 2 1.76349 -1.17376 -1.55644
975 1 2.07765 -0.100285 -2.39655
209 1 2.79804 -0.745676 -1.95355
3492 2 3.22009 -0.351969 -2.84578
1740 1 2.05441 -0.904288 -2.7892
1293 1 3.17537 -0.234235 -1.52744
1027 1 3.59389 -1.24491 -2.20925
1175 1 3.88715 -0.617266 -1.5083
1020 1 4.67641 -0.995656 -2.06532
868 1 4.91123 -0.126911 -2.71302
3467 2 5.81728 -0.946762 -2.50071
192 1 5.28175 -0.311033 -1.85304
2203 1 6.75213 -1.26871 -1.80005
3537 2 6.6207 -0.179442 -1.91312
1782 1 7.07588 -1.02941 -2.61565
3267 2 -6.61976 -6.55468 -1.41164
93 1 -6.5762 -5.73465 -0.35417
2767 2 -5.92735 -6.41455 -1.09938
185 1 -7.1022 -7.02971 -0.53006
310 1 -6.82487 -6.50932 -0.0559867
639 1 -6.14874 -6.73705 -0.0157574
2947 2 -5.36895 -5.87161 -0.465486
2568 1 -4.78711 -6.48637 -0.959151
2131 1 -4.31502 -7.12197 -0.0523365
1450 1 -4.14262 -5.94979 -0.72628
1578 1 -3.29727 -5.92165 -1.10232
3421 2 -3.40432 -6.9528 -0.806784
1228 1 -2.47119 -6.08935 -0.854326
588 1 -2.40881 -6.90219 -0.222051
2918 2 -0.707186 -7.12534 -0.12347
1909 1 -1.39949 -6.85256 -1.38712
1385 1 -1.11753 -6.28002 -0.634375
2370 1 -1.78784 -6.46564 -0.632634
83 1 -0.672938 -5.85198 -0.208881
727 1 -1.6474 -5.87752 -0.00419196
1380 1 -0.490151 -6.29677 -1.42528
2474 1 -0.415687 -6.97084 -1.0943
1131 1 0.00135678 -6.20249 -0.317884
3152 2 1.36141 -5.92775 -1.21028
2771 2 1.84133 -5.93147 -0.633423
2601 1 0.657609 -6.95587 -0.301651
1811 1 1.44589 -7.07833 -0.647613
2066 1 1.93845 -7.029 -1.27464
1050 1 0.862322 -6.24937 -0.121341
2640 1 2.88374 -5.94001 -0.51051
42 1 2.55995 -6.65229 -0.885372
2077 1 3.36057 -5.74878 -1.1722
3305 2 4.02125 -6.51128 -0.174274
2794 2 3.58162 -6.80747 -0.886655
1879 1 5.57658 -6.57862 -0.789532
2507 1 4.95662 -6.77482 -1.37721
1935 1 4.99981 -6.00182 -0.890683
1824 1 5.73553 -5.9854 -0.316735
2067 1 4.93957 -7.08894 -0.563193
522 1 6.41116 -6.40432 -1.15217
1660 1 7.02373 -5.99975 -0.676785
1379 1 6.49869 -6.18957 -0.0557501
2275 1 -6.42201 -4.50522 -0.40387
606 1 -6.25841 -5.07493 -0.9372
1842 1 -5.68148 -4.35179 -0.378567
857 1 -4.90604 -5.63721 -1.3371
1215 1 -4.89188 -4.64804 -0.703334
987 1 -4.01858 -5.07005 -0.308663
3546 2 -4.0875 -4.75638 -1.27544
1688 1 -3.33139 -5.21765 -0.318458
2919 2 -3.43941 -4.42198 -1.3278
2330 1 -1.9869 -5.37147 -0.535015
2521 1 -2.48201 -5.13175 -1.29115
2433 1 -1.51377 -4.307 -0.0525431
3370 2 -1.08875 -5.37921 -1.33552
3489 2 -0.834751 -4.89426 -0.679507
2265 1 -1.76845 -4.62012 -0.909604
3270 2 -0.268857 -4.65358 -0.349624
151 1 0.589596 -5.4306 -0.236959
1577 1 0.179951 -4.44223 -1.12305
1076 1 0.0634897 -5.69737 -0.984991
1682 1 0.90167 -4.95878 -0.997725
651 1 1.86273 -4.4609 -0.757045
3094 2 1.98128 -5.46304 -0.0317148
2173 1 2.3662 -5.13052 -1.25022
57 1 2.91757 -4.80005 -0.660667
1337 1 4.3444 -5.55632 -1.17903
1608 1 3.96416 -5.20936 -0.453369
2724 1 5.42896 -4.40893 -0.935559
2050 1 5.67869 -4.5388 -0.12695
2105 1 4.78684 -5.11864 -0.692286
345 1 5.35407 -5.24128 -0.155398
3358 2 6.28224 -5.23154 -0.795147
3023 2 6.72486 -4.89417 -0.382283
2014 1 -6.46365 -2.9525 -0.95877
1207 1 -6.40266 -3.49637 -0.24403
3449 2 -5.69909 -3.57389 -1.11649
2910 2 -5.14185 -3.14266 -0.481876
1147 1 -4.3849 -4.14847 -0.15958
1779 1 -4.02708 -3.38371 -0.387595
765 1 -4.35033 -3.57128 -1.12126
122 1 -3.27573 -3.03778 -1.15354
3578 2 -2.80165 -4.00499 -0.57691
575 1 -2.17894 -2.88794 -1.1407
3503 2 -2.49092 -3.36853 -0.23731
136 1 -1.01125 -3.8793 -1.0174
2590 1 -1.88678 -3.82673 -1.30761
532 1 -1.36387 -3.59445 -0.410889
1374 1 -0.357648 -3.33727 -0.538899
2385 1 0.302719 -3.61283 -0.886654
548 1 0.308047 -2.93536 -1.06798
1607 1 1.18786 -4.21831 -0.487297
3264 2 1.40933 -3.30645 -0.912674
826 1 2.58401 -3.8725 -0.528093
437 1 2.99883 -3.37056 -1.30229
3493 2 2.02375 -2.9609 -0.371974
1281 1 3.42964 -4.24883 -0.0617663
139 1 3.28786 -3.27225 -0.499496
2801 2 3.86251 -4.03743 -1.0894
3336 2 4.47366 -4.08018 -0.554068
69 1 3.90849 -3.03416 -1.08938
3275 2 4.85911 -3.69987 -0.0601214
834 1 4.89272 -3.25319 -1.16659
971 1 5.48758 -3.01845 -0.500086
2012 1 6.24238 -4.15885 -1.03975
1815 1 5.90914 -3.84473 -0.412033
1719 1 7.04485 -4.06406 -0.848693
169 1 7.11839 -3.33959 -0.424636
1222 1 6.34642 -3.21134 -0.0371115
3093 2 6.26885 -2.86537 -1.14548
523 1 -6.08446 -2.62187 -0.149681
549 1 -6.17913 -2.2904 -1.14613
1638 1 -6.33962 -1.53373 -0.867909
3410 2 -5.17036 -1.88144 -1.33622
1238 1 -5.66872 -1.63618 -0.480183
3591 2 -4.94344 -2.45485 -0.740884
1419 1 -4.70704 -1.52877 -0.200791
2309 1 -4.00234 -2.10476 -0.812303
313 1 -4.00148 -2.73192 -1.36549
1451 1 -3.77514 -1.59544 -0.134944
921 1 -3.39694 -2.57099 -0.665634
3247 2 -2.78892 -1.7197 -1.42968
665 1 -2.52896 -2.31849 -0.432617
135 1 -1.5464 -1.94765 -1.35317
832 1 -1.47687 -1.84469 -0.446676
3123 2 -0.91236 -2.81058 -1.20419
774 1 -0.790118 -1.46228 -1.28723
1475 1 -1.54261 -2.81108 -0.562753
2968 2 -0.416767 -2.28004 -0.784353
2201 1 0.0616083 -1.49285 -1.31867
3569 2 0.0879129 -1.81777 -0.350195
2257 1 1.14049 -2.10248 -0.929854
106 1 1.51668 -1.4925 -0.0758678
2530 1 0.986628 -2.52083 -0.29791
68 1 1.78818 -2.02633 -0.69604
2710 1 2.45194 -1.55898 -0.45072
1641 1 3.0895 -2.50876 -0.871822
461 1 2.41777 -2.10258 -1.41529
941 1 3.27356 -1.67121 -0.438614
1765 1 4.50951 -2.70197 -0.444311
2916 2 4.31494 -1.76383 -1.18695
24 1 3.75591 -2.41863 -0.0573139
658 1 5.71732 -2.069 -0.967016
2467 1 5.09482 -2.48883 -1.17252
2485 1 5.22425 -2.36855 -0.00926937
76 1 6.65138 -1.44276 -0.828929
3225 2 6.87124 -2.39499 -0.504569
1300 1 5.99042 -1.64417 -0.21057
92 1 -6.95325 -0.927629 -1.08721
1814 1 -6.13686 -0.492756 -0.980952
2600 1 -6.59176 -0.347116 -0.181033
2117 1 -5.84607 -0.272435 -0.298019
3501 2 -4.68168 -0.184287 -0.27648
2950 2 -4.95077 -0.550247 -0.984603
56 1 -4.13714 -1.17993 -0.964647
692 1 -3.7029 -0.726732 -0.351238
2498 1 -2.04081 -0.850655 -1.41687
2761 2 -2.24684 -1.0986 -0.113316
1689 1 -3.16118 -0.49001 -1.07332
2284 1 -2.25915 -0.298954 -1.00121
3114 2 -2.78488 -1.30866 -0.745476
2151 1 -2.28245 -0.00605266 -0.103586
295 1 -0.858922 -1.13489 -0.363677
2034 1 -1.31897 -0.0304809 -0.85344
773 1 -0.706106 -0.330185 -0.212363
2129 1 -1.40277 -0.968553 -0.835717
1624 1 -0.0370894 -0.744809 -0.6931
3315 2 -0.436122 -0.0391704 -1.2869
1129 1 1.06181 -0.683207 -0.483875
116 1 0.723017 -0.253512 -1.19432
1059 1 0.895355 -1.14373 -1.06182
3212 2 2.70116 -0.541616 -0.514105
187 1 3.12141 -1.41518 -1.17948
3563 2 2.15273 -0.175023 -0.227239
3012 2 2.14394 -0.792785 -1.02581