ITEM: TIMESTEP
0
ITEM: NUMBER OF ATOMS
3594
ITEM: BOX BOUNDS pp pp pp
-7.1620156656392542e+00 7.1620156656392542e+00
-7.1620156656392542e+00 7.1620156656392542e+00
-7.1620156656392542e+00 7.1620156656392542e+00
ITEM: ATOMS id type x y z
2169 1 -7.1566 -6.84451 -5.94976
1634 1 -6.35532 -6.71482 -5.87943
619 1 -6.9075 -5.87246 -6.36077
265 1 -6.99888 -6.64933 -6.67411
3570 2 -5.70888 -6.46454 -6.76556
3463 2 -5.40944 -6.09499 -6.1887
420 1 -4.57811 -5.75752 -7.0239
2207 1 -4.09974 -5.86033 -6.44962
306 1 -4.44162 -6.90062 -6.45644
963 1 -3.94326 -6.35655 -5.76854
441 1 -3.45766 -6.24853 -7.05352
2603 1 -2.12173 -5.94994 -6.19614
1746 1 -2.43014 -6.39555 -7.13156
801 1 -3.13837 -5.97286 -6.13232
3505 2 -2.70531 -6.9857 -6.06651
2202 1 -1.82766 -6.77364 -6.51353
1003 1 -0.709236 -6.55034 -6.22552
256 1 -0.131312 -6.14392 -7.08099
2485 1 -0.609239 -7.07243 -7.04813
36 1 0.303841 -6.50717 -6.27272
2975 2 1.76169 -5.9494 -6.29714
337 1 1.67449 -7.07177 -6.0454
3065 2 1.39534 -6.37686 -6.8234
1899 1 3.07551 -6.51204 -6.06045
2396 1 2.38354 -6.91061 -6.31596
1019 1 2.6375 -6.55121 -6.79753
1695 1 3.34696 -6.45797 -7.135
234 1 4.00725 -6.06872 -6.49557
3035 2 4.15431 -7.04016 -6.38753
1724 1 5.19014 -6.55884 -6.53919
850 1 4.86367 -5.87576 -6.1394
1495 1 5.60831 -5.93425 -5.86839
2631 1 4.93513 -5.7563 -7.13834
1565 1 5.66575 -7.12574 -6.42751
2052 1 6.76254 -6.16872 -5.82745
1538 1 6.53326 -7.07087 -6.596
2357 1 6.17017 -6.53712 -5.94586
2023 1 -6.29968 -5.17276 -6.32971
2219 1 -6.6247 -4.51388 -6.42586
1123 1 -6.89421 -4.30172 -7.13664
634 1 -6.30775 -5.71672 -7.08385
859 1 -5.35361 -4.85174 -6.0357
1890 1 -4.79751 -5.13959 -6.54282
886 1 -5.61124 -5.01961 -6.89289
2164 1 -4.33345 -4.61153 -6.00553
625 1 -4.42266 -4.58144 -7.10114
2116 1 -3.73631 -5.35559 -5.86524
2638 1 -2.17146 -5.00844 -6.3273
3588 2 -3.23911 -4.8384 -6.63883
3162 2 -2.87155 -4.42774 -6.21269
1361 1 -2.08555 -4.52697 -7.05956
1999 1 -2.63328 -5.64688 -6.85975
3133 2 -0.780768 -5.5346 -6.39363
40 1 -1.30888 -4.46411 -6.25592
2740 2 -1.39189 -5.71281 -6.86317
3218 2 -0.243141 -5.17145 -6.02447
2424 1 0.14391 -4.58438 -6.94641
1274 1 0.534875 -5.65497 -6.73943
2682 1 0.793565 -5.66763 -5.88707
1337 1 1.27317 -4.92845 -6.29445
1099 1 2.00743 -5.23671 -7.10047
1308 1 2.43519 -4.72235 -5.84032
1676 1 2.71584 -4.74373 -6.67808
2225 1 2.69192 -5.70838 -6.85079
1460 1 3.28897 -5.66022 -6.27707
1658 1 3.29652 -4.59907 -6.09836
3019 2 4.2441 -4.97937 -6.59848
1355 1 3.75228 -5.15282 -5.75483
1835 1 5.54785 -4.98567 -6.45284
3539 2 4.68181 -4.69651 -6.17823
3362 2 6.32575 -5.61739 -6.6364
2191 1 6.15513 -4.49373 -7.13215
3055 2 6.80066 -5.14168 -6.00846
2002 1 -6.7532 -3.78265 -5.97415
1164 1 -6.70973 -3.60769 -6.70557
1410 1 -6.15261 -3.09399 -6.37581
2985 2 -5.384 -4.07298 -6.59144
3517 2 -4.65232 -3.45518 -5.81926
2913 2 -5.29682 -3.52072 -6.22208
407 1 -3.9341 -3.96079 -6.54198
1276 1 -4.51618 -3.56493 -7.14884
2166 1 -3.47645 -3.21111 -6.59248
1023 1 -2.31846 -3.19606 -6.24062
1306 1 -2.84116 -3.26404 -5.76806
2655 1 -2.77346 -3.43351 -6.89835
831 1 -1.77662 -3.7954 -6.64568
2027 1 -1.2248 -3.57532 -5.96364
3571 2 -0.854023 -3.07271 -6.88186
1060 1 -0.515682 -4.29391 -6.98442
987 1 -0.464482 -3.97266 -6.28218
1401 1 0.360488 -4.17842 -6.25564
2286 1 0.553923 -3.59203 -6.72881
1094 1 1.15488 -3.84745 -5.98001
2766 2 1.79067 -3.89723 -6.85557
3353 2 2.35316 -3.56392 -6.32555
2157 1 3.4568 -3.16084 -6.54536
1349 1 4.13913 -4.0181 -7.08651
385 1 3.69393 -3.93796 -6.37378
2432 1 5.73226 -4.15848 -6.4107
1290 1 5.64297 -3.27103 -6.00324
1803 1 4.58679 -3.32835 -6.40071
176 1 5.33872 -3.42331 -6.72494
1000 1 6.96322 -4.03845 -6.5805
132 1 6.31407 -4.03806 -5.94405
3487 2 6.6804 -3.0944 -6.17143
2922 2 6.79511 -2.91772 -6.95177
952 1 -6.05304 -1.70501 -6.18628
1903 1 -6.74347 -1.45525 -6.61327
3067 2 -7.08716 -2.52141 -6.28405
3474 2 -5.28487 -1.66372 -7.01482
1412 1 -5.59188 -2.28708 -6.42472
2565 1 -4.78148 -2.31693 -6.25167
1379 1 -5.77836 -2.69211 -7.03317
15 1 -4.24042 -2.83111 -6.51177
2693 1 -3.74731 -1.61539 -6.53481
247 1 -4.01756 -1.98614 -5.9687
1505 1 -4.25191 -2.17556 -6.97396
2842 2 -2.48068 -1.63988 -6.06318
3343 2 -2.82144 -2.09264 -6.80078
2040 1 -3.17431 -2.39466 -5.91394
1879 1 -1.57573 -2.55961 -6.47115
2648 1 -0.951974 -2.16195 -5.95741
3045 2 -1.8456 -1.47772 -5.73722
2484 1 -0.757003 -1.99962 -6.77379
3429 2 -0.117428 -2.77343 -6.46043
2326 1 -0.343327 -1.71197 -5.92559
143 1 0.307443 -1.56561 -6.67646
2909 2 0.550614 -2.68632 -5.84522
996 1 1.59329 -1.49304 -5.97939
2591 1 1.11568 -2.06602 -6.50407
2094 1 1.37088 -2.82939 -6.43751
664 1 2.49369 -2.5289 -6.67612
1386 1 2.89938 -2.12705 -5.99965
490 1 1.95811 -2.29225 -6.07074
2232 1 3.26918 -2.47892 -7.06343
1208 1 3.75505 -1.88567 -6.50693
1134 1 3.9501 -2.56963 -6.08875
2831 2 4.90437 -1.88033 -6.16565
1935 1 5.70757 -2.6862 -6.64119
2944 2 4.72822 -2.29481 -6.87235
1396 1 6.07342 -2.27216 -6.20496
2312 1 6.6669 -1.50378 -6.11426
359 1 6.92338 -1.8426 -7.07858
3025 2 -6.9314 -0.239185 -6.23992
517 1 -6.57023 -1.31505 -5.86976
241 1 -6.24071 -0.734345 -6.74086
2080 1 -5.09641 -0.175841 -5.87413
3098 2 -4.99781 -1.02081 -6.78063
231 1 -5.76922 -0.584905 -6.18687
419 1 -5.36155 -0.165989 -6.9605
3401 2 -3.95613 -0.460366 -5.95672
2778 2 -4.44102 -0.78932 -6.44189
2143 1 -2.57777 -0.297931 -5.7956
2399 1 -3.04027 -0.774813 -6.2467
1664 1 -3.15864 -0.865553 -6.95212
1067 1 -2.34703 -1.03454 -7.05828
1762 1 -1.05546 -0.456118 -6.61312
112 1 -1.95027 -0.709881 -6.40462
1043 1 -1.49276 -0.279906 -5.82741
220 1 -0.901299 -1.14214 -6.37916
1229 1 -0.792208 -0.189812 -5.8675
1184 1 -1.48916 -1.38227 -6.8582
238 1 -0.275163 -0.855613 -5.83702
3488 2 0.193716 -0.193111 -6.73856
2101 1 1.59141 -0.622335 -6.30966
300 1 0.665642 -1.08104 -5.91069
401 1 1.14388 -1.02697 -6.92019
3553 2 3.21087 -0.909613 -6.03421
3533 2 2.63598 -1.23573 -6.72238
2300 1 2.09937 -0.0197029 -6.54168
1005 1 3.38637 -0.167854 -6.92006
1511 1 4.2026 -0.838811 -6.45126
1151 1 5.60917 -0.19439 -5.94769
1394 1 4.77137 -0.396893 -5.78166
2128 1 5.20675 -0.580017 -6.56985
3301 2 7.02468 -0.269861 -6.98085
2305 1 6.06535 -0.689465 -6.47332
352 1 6.02983 -1.42932 -6.47231
798 1 -6.28546 -5.91306 -5.6252
54 1 -7.1171 -6.45734 -5.20124
3564 2 -6.37178 -7.06051 -4.70213
3024 2 -4.79412 -5.80593 -5.72539
1949 1 -5.30065 -6.9679 -4.55921
1865 1 -4.81181 -6.21417 -4.54743
2287 1 -4.79458 -6.85048 -5.26645
1199 1 -5.76942 -6.00122 -4.86197
1133 1 -5.65645 -6.60428 -5.40877
2284 1 -3.84951 -6.90241 -5.11599
2670 1 -4.06779 -6.14191 -4.30173
2224 1 -3.29146 -6.41074 -4.59607
296 1 -3.53852 -6.002 -5.19082
3439 2 -2.18985 -6.33725 -5.02898
2993 2 -2.66369 -6.72724 -5.48209
181 1 -1.39178 -6.0713 -5.5821
2292 1 -0.893863 -6.44071 -5.14275
3523 2 -1.73733 -6.02753 -4.56232
2508 1 -0.178617 -6.16094 -5.65223
860 1 -0.603398 -5.95141 -4.36287
3135 2 0.209296 -6.9956 -4.79006
1127 1 0.294273 -5.96194 -5.10408
1767 1 1.6506 -6.20848 -5.17398
1450 1 1.46744 -7.09 -4.97718
1629 1 0.840787 -6.45489 -5.53205
1137 1 2.23935 -6.85681 -5.33344
2642 1 2.33139 -6.31695 -4.75562
1038 1 3.08635 -6.37219 -4.51845
923 1 3.46872 -6.50248 -5.24472
841 1 4.00707 -5.87037 -5.44523
1567 1 3.86637 -6.26132 -4.46842
2915 2 4.49784 -6.76297 -5.63422
2659 1 4.2444 -7.03394 -4.5252
3242 2 4.97814 -6.41628 -4.82766
3558 2 5.524 -6.13411 -4.47806
1977 1 5.63834 -6.98802 -5.64574
1729 1 6.86382 -6.89505 -4.5282
1168 1 6.26499 -6.52896 -5.13141
2268 1 7.10858 -6.12778 -4.32118
1586 1 -6.67639 -5.69841 -4.98736
1408 1 -6.03964 -4.33168 -5.72681
53 1 -5.90019 -5.19057 -5.54515
3373 2 -6.70078 -4.58225 -5.03547
3249 2 -7.10015 -4.90173 -5.528
110 1 -4.96523 -4.30796 -4.46605
1529 1 -5.79461 -5.16945 -4.32062
3142 2 -4.80495 -5.27636 -5.10308
3318 2 -4.16405 -5.15033 -4.59879
2637 1 -3.55399 -4.63599 -5.56525
1156 1 -2.69042 -4.52169 -4.33758
2332 1 -2.66599 -5.5225 -5.61981
1544 1 -3.00317 -5.04318 -5.04821
694 1 -3.0181 -5.66117 -4.57565
3000 2 -2.04999 -4.33898 -4.98449
1781 1 -1.70825 -5.06517 -5.61557
2368 1 -0.902171 -5.42345 -5.03848
141 1 -0.666929 -4.34129 -5.41534
2662 1 -0.984392 -4.41049 -4.77809
2791 2 -1.84805 -5.23878 -4.62284
1438 1 -0.344052 -5.04188 -4.58503
3501 2 0.330027 -4.76722 -5.58482
353 1 0.187163 -5.56492 -4.33471
1849 1 1.16982 -5.60157 -4.82705
5 1 1.60763 -4.60416 -5.66761
1554 1 1.5674 -5.23886 -5.35564
3066 2 0.839849 -4.43721 -4.95108
2314 1 1.97724 -5.30659 -4.662
3097 2 2.54177 -5.69515 -5.72324
2092 1 2.29584 -4.49285 -4.99994
3128 2 3.10172 -5.34077 -4.94051
2447 1 3.06259 -4.30517 -5.16118
2789 2 3.61025 -4.96702 -4.40202
1594 1 4.78149 -5.22771 -5.25837
1252 1 5.3737 -4.77461 -4.31202
2070 1 5.50826 -5.11274 -4.91282
720 1 4.69906 -4.57732 -4.65483
858 1 5.93131 -4.936 -5.56122
2256 1 6.45084 -5.68648 -5.10473
576 1 6.25246 -4.35974 -4.99639
853 1 6.58575 -4.86527 -4.59314
3266 2 -6.40653 -4.16989 -4.44779
1485 1 -6.30251 -3.46393 -5.27373
2674 1 -6.52123 -3.14414 -4.52787
1017 1 -5.58932 -3.99834 -5.07267
2000 1 -4.60703 -3.49665 -4.57073
65 1 -5.4751 -3.10712 -5.05002
2388 1 -4.48257 -4.19268 -5.25202
3279 2 -4.20548 -2.91101 -5.3643
669 1 -3.71066 -3.30622 -4.45054
633 1 -3.57539 -3.72848 -5.62889
2311 1 -3.44144 -4.19888 -4.75492
3454 2 -2.24165 -4.11379 -5.71441
1539 1 -2.98336 -3.4485 -4.98974
2816 2 -1.74344 -3.70466 -5.01562
3531 2 -1.31932 -3.29979 -4.55938
20 1 -0.263809 -3.96336 -4.74839
486 1 -0.620852 -3.3002 -5.55206
958 1 0.00887933 -3.73774 -5.66998
691 1 0.34411 -3.3754 -4.88979
3154 2 1.36087 -4.02657 -4.4022
546 1 1.75622 -2.91247 -4.38279
323 1 1.1786 -3.35934 -5.3086
445 1 1.75818 -2.98832 -5.72541
1801 1 3.20921 -3.58635 -4.4043
1993 1 2.09332 -3.62841 -5.03937
2968 2 2.90729 -3.25961 -5.7258
1102 1 3.91909 -4.27806 -5.29057
1033 1 4.04439 -3.87367 -4.62704
152 1 4.07462 -3.50027 -5.38279
3109 2 5.08905 -4.17747 -5.60708
3499 2 5.27932 -3.81014 -5.02937
1809 1 4.59375 -3.21539 -4.40632
3355 2 5.79647 -3.27678 -4.37317
2056 1 7.0304 -3.73898 -5.20022
1085 1 6.33673 -3.28484 -5.2273
757 1 7.13981 -2.8767 -4.86133
2887 2 -6.74686 -2.46358 -5.54276
2877 2 -6.43217 -2.14289 -5.0408
2680 1 -5.05679 -2.19745 -5.21774
182 1 -5.66502 -2.49839 -5.69153
2543 1 -4.64452 -1.44773 -5.57459
3110 2 -5.85937 -1.5675 -4.66163
2782 2 -3.8567 -2.28437 -4.96185
3551 2 -3.1777 -2.09347 -4.32315
2244 1 -2.66157 -1.87878 -5.21131
440 1 -2.53997 -2.73341 -5.05295
1021 1 -2.12072 -2.51201 -4.32434
189 1 -2.03189 -2.69179 -5.68878
785 1 -1.18452 -2.80537 -5.3938
2159 1 -1.91064 -2.13926 -4.90378
2595 1 -1.02175 -2.33957 -4.86043
1650 1 -0.126757 -2.48776 -5.01384
2331 1 -0.31162 -1.86913 -4.32093
951 1 0.273523 -1.43797 -5.09516
3363 2 1.00638 -2.24103 -5.25401
3578 2 1.61501 -1.55045 -4.77071
1480 1 2.34427 -1.91464 -5.40443
1579 1 2.87071 -1.57164 -4.8972
3297 2 3.14987 -2.78672 -5.01688
2025 1 2.23056 -2.61195 -4.83193
1259 1 3.80746 -1.88597 -5.31661
3406 2 3.65158 -2.40391 -4.33128
2673 1 4.80694 -2.7741 -5.49332
3544 2 5.49014 -1.43379 -5.59006
2701 1 5.7362 -2.52343 -5.48973
1086 1 5.23125 -2.33409 -4.55764
1962 1 4.70075 -1.79004 -4.93305
678 1 6.53381 -1.85832 -4.54753
901 1 6.54513 -2.06591 -5.44913
2413 1 7.13669 -1.43588 -4.63243
1593 1 -6.34537 -0.305552 -4.97264
938 1 -6.22255 -0.848633 -5.34062
2590 1 -7.08206 -0.261296 -4.91401
1518 1 -5.75728 -0.0630886 -4.41995
1125 1 -5.60866 -0.249536 -5.20562
1929 1 -5.53312 -1.24217 -5.70058
903 1 -4.94448 -0.653147 -5.24178
1584 1 -4.20683 -1.36394 -4.98975
185 1 -4.25161 -0.620871 -4.82076
1076 1 -3.33559 -1.15306 -5.44217
2561 1 -2.83416 -1.06382 -4.76849
2134 1 -2.24015 -0.253675 -4.34181
48 1 -2.42892 -0.575434 -5.11272
2868 2 -1.26328 -1.32275 -5.31271
2686 1 -1.86365 -1.16923 -4.46869
194 1 -1.71092 -0.283104 -4.94974
3377 2 -0.636467 -0.589309 -4.9739
637 1 0.94161 -0.000397536 -4.30363
2259 1 1.46871 -0.77317 -5.48
800 1 0.656104 -0.426394 -5.29521
1070 1 0.738612 -1.04872 -4.58363
2363 1 1.38468 -0.211595 -4.93856
2620 1 2.35951 -0.798846 -5.48157
2608 1 1.99496 -0.00508588 -5.34234
2541 1 2.58986 -0.458457 -4.56749
3453 2 3.47363 -0.267196 -5.24473
635 1 4.00111 -1.14563 -4.47113
1210 1 4.19877 -1.14247 -5.46184
3447 2 5.79424 -0.774398 -4.90921
1921 1 4.6594 -0.486416 -4.82066
70 1 6.58758 -0.578476 -5.61497
3502 2 6.37257 -0.294768 -4.3343
2445 1 7.08243 -1.1972 -5.46056
3442 2 -6.30286 -6.73752 -4.01516
2628 1 -6.84807 -6.50126 -3.43982
1534 1 -7.14291 -5.8219 -3.26364
1960 1 -4.82616 -6.8359 -3.86201
2948 2 -5.79132 -6.26273 -3.52474
2379 1 -3.59095 -5.91953 -3.78114
3345 2 -3.93831 -7.10825 -4.11056
2391 1 -4.31494 -6.35237 -3.20968
2762 2 -3.62481 -7.0955 -3.47773
3236 2 -3.3155 -6.67767 -3.06232
1540 1 -2.70648 -6.19814 -3.80763
1566 1 -2.28507 -6.83451 -3.98653
1275 1 -1.96928 -6.87982 -3.1409
384 1 -1.50435 -7.03615 -4.024
2499 1 -0.899085 -6.65068 -4.09761
1313 1 -1.11268 -6.18021 -3.24086
588 1 -1.88425 -6.135 -3.36501
39 1 -0.360586 -6.47 -3.57179
3137 2 0.512379 -6.6089 -4.267
644 1 0.511238 -7.03058 -2.89949
1483 1 0.220977 -6.29554 -2.947
3179 2 1.09425 -6.22383 -3.98021
1799 1 1.94443 -6.78004 -4.14099
3047 2 1.89307 -5.78365 -2.94203
3340 2 1.43039 -5.87375 -3.54446
1626 1 2.37797 -6.60417 -3.54055
1520 1 3.10653 -5.81889 -3.40107
73 1 2.90972 -6.9388 -2.88001
2569 1 4.40224 -5.90416 -3.86632
1128 1 3.60804 -5.84073 -3.88653
3119 2 4.01312 -6.95142 -3.33833
2086 1 4.85219 -6.8979 -3.87227
2625 1 5.81979 -7.04261 -4.01028
1885 1 5.38348 -6.77812 -3.28803
2437 1 4.99244 -6.19371 -3.35525
3227 2 6.01028 -5.98494 -3.95463
1250 1 6.09706 -6.28097 -2.91037
907 1 6.64462 -6.6915 -3.52196
2370 1 -6.6208 -5.26255 -3.74128
2529 1 -6.22766 -4.843 -3.30958
2630 1 -5.19195 -5.67533 -4.062
743 1 -5.26834 -4.91204 -3.55617
926 1 -4.51979 -5.63297 -3.62141
3352 2 -3.85714 -4.85949 -3.93857
1300 1 -4.55546 -4.89976 -2.97945
1486 1 -3.68888 -5.42503 -3.19997
3338 2 -3.36886 -4.37782 -3.46766
2111 1 -2.81373 -5.32955 -3.88384
18 1 -2.17495 -4.93713 -3.38769
1726 1 -2.74699 -5.19899 -3.06329
3052 2 -1.34436 -5.31395 -3.94057
3497 2 -0.674746 -5.24492 -3.3095
2265 1 -1.61395 -4.93247 -2.99455
2064 1 -0.186303 -4.48374 -3.97209
867 1 0.51424 -5.12653 -3.82293
1768 1 0.552737 -4.30382 -3.63791
895 1 0.216698 -5.68779 -3.49865
1346 1 1.15916 -5.08035 -4.09528
863 1 1.42471 -4.61408 -3.39478
2046 1 0.769855 -5.18657 -2.96465
24 1 2.40044 -5.70711 -4.01265
2129 1 2.10424 -4.9104 -3.69958
500 1 2.34186 -4.33716 -3.13707
2195 1 2.8488 -4.96581 -3.35741
2840 2 3.6312 -4.51578 -3.8289
770 1 4.55123 -5.29481 -4.28125
905 1 4.1954 -5.4502 -3.22977
3039 2 4.16862 -4.4601 -3.37011
94 1 5.04278 -5.31743 -3.47108
2054 1 5.15051 -4.42629 -3.55678
3437 2 6.07571 -5.26706 -3.64468
939 1 7.05308 -5.25878 -4.14828
3288 2 6.45819 -4.90909 -3.19765
1737 1 -6.59654 -4.08628 -3.14666
1317 1 -6.83346 -3.03765 -3.72164
866 1 -6.25202 -2.91128 -3.02895
3510 2 -5.71784 -3.7419 -3.96155
2145 1 -5.43979 -4.2411 -2.88162
3518 2 -5.25589 -3.25179 -3.43612
479 1 -4.48116 -3.78652 -3.6664
492 1 -3.34464 -3.39324 -3.81872
957 1 -2.60541 -3.65241 -4.20534
3085 2 -2.83588 -4.02409 -2.96587
1823 1 -1.02531 -4.17577 -3.91849
1945 1 -1.91491 -4.22979 -3.77121
1024 1 -1.46757 -3.99619 -3.34242
1325 1 -1.8139 -3.18728 -3.6821
2867 2 -0.727787 -3.04684 -4.22522
552 1 -1.08817 -3.08536 -2.90154
920 1 -0.492514 -3.81449 -3.23557
298 1 0.154061 -3.49029 -3.75494
1738 1 0.51964 -3.03932 -3.29701
1298 1 0.850821 -3.95209 -2.93378
2949 2 1.55211 -3.56252 -3.70419
3386 2 1.88422 -3.40757 -3.01292
144 1 2.5839 -3.99182 -4.10265
1838 1 3.2002 -3.76082 -3.47833
223 1 2.53953 -3.07593 -3.96873
701 1 3.48874 -3.29979 -2.89661
1528 1 3.92721 -3.23975 -3.7061
273 1 4.62392 -3.92454 -4.0739
1368 1 5.23885 -3.34708 -3.39368
1257 1 6.04163 -4.2049 -4.21379
899 1 6.75773 -3.77138 -4.24632
906 1 7.09657 -4.06373 -3.67441
2236 1 5.8804 -4.07927 -3.39711
1769 1 6.57947 -3.52383 -3.3111
84 1 -6.16347 -2.67013 -4.05491
1286 1 -6.61198 -1.8236 -3.92217
1792 1 -5.91274 -2.02012 -3.26534
572 1 -5.40178 -2.61464 -4.29622
1072 1 -4.66124 -2.33263 -4.13995
2745 2 -4.77032 -2.83001 -2.94348
682 1 -5.11417 -1.69146 -3.5659
153 1 -4.32757 -1.50974 -4.18284
1150 1 -3.87932 -2.77293 -3.72107
97 1 -4.03031 -2.04793 -3.46097
2505 1 -3.31648 -1.90167 -2.87566
2649 1 -3.39263 -2.7897 -3.0619
2706 1 -2.6644 -2.75824 -3.67263
3003 2 -2.84201 -1.51258 -3.82188
1062 1 -2.55304 -2.40277 -2.93652
3296 2 -0.662949 -2.67193 -3.63291
354 1 -1.23109 -1.87504 -4.10522
1344 1 -1.79525 -2.35623 -3.6257
1613 1 -1.24182 -1.60858 -3.25653
3080 2 -0.249721 -2.29762 -3.19874
3089 2 0.420505 -2.02092 -3.06161
2044 1 0.675497 -2.82506 -4.0963
2001 1 0.764853 -1.87394 -4.14152
617 1 1.93202 -2.54124 -3.65256
1398 1 1.31722 -2.11254 -3.83116
2082 1 1.88635 -1.74806 -3.15304
1052 1 2.65852 -2.10573 -4.21275
204 1 2.76728 -1.79953 -3.38285
8 1 3.05814 -2.6186 -3.48391
3404 2 3.936 -1.84707 -3.67939
2009 1 3.90593 -2.6105 -2.86857
1851 1 5.16273 -1.74048 -3.83591
964 1 5.83312 -1.69536 -4.2787
376 1 4.75625 -2.68764 -3.69944
873 1 5.49764 -2.0239 -2.90862
2851 2 6.15832 -2.74159 -3.91145
816 1 5.9771 -2.66695 -2.93628
3146 2 6.6771 -2.29983 -3.52771
519 1 -6.31891 -0.415667 -3.71491
150 1 -6.63765 -0.838029 -4.29548
1646 1 -6.98933 -1.15254 -3.29749
235 1 -6.10695 -1.21639 -3.37115
3174 2 -4.93492 -0.730577 -3.84765
3091 2 -5.42129 -1.04643 -4.24273
3094 2 -4.64225 -0.64077 -3.06753
2597 1 -5.70153 -0.267216 -3.10248
1894 1 -4.2622 -0.173322 -4.17063
2602 1 -3.83414 -1.06354 -3.39368
1893 1 -3.46592 -0.561511 -4.16198
918 1 -3.54765 -0.150909 -3.5408
793 1 -2.65846 -0.259922 -3.65236
1475 1 -2.96182 -0.532925 -2.95605
3516 2 -2.27049 -1.31327 -3.32029
448 1 -1.5448 -0.771014 -3.84765
2343 1 -0.841872 -0.690231 -2.97621
1918 1 -1.93163 -0.0173027 -3.23838
2880 2 -0.567659 -0.392866 -4.25366
342 1 -0.433566 -1.00815 -3.49989
155 1 0.171228 -1.25492 -4.08441
1867 1 0.289473 -0.792958 -3.01792
2713 1 0.780704 -0.474663 -3.73036
3451 2 1.86132 -0.985397 -4.22328
332 1 1.48339 -1.06968 -2.88535
2446 1 0.96158 -1.28172 -3.35887
650 1 1.4553 -0.0183194 -3.13976
1866 1 3.04259 -1.18431 -4.18487
3068 2 2.29787 -0.564814 -3.32738
2614 1 3.27718 -0.393559 -4.09111
749 1 3.45581 -0.788089 -3.37423
1573 1 4.23563 -0.412304 -3.64263
2793 2 4.53796 -1.28949 -3.1496
896 1 5.37987 -0.780591 -3.60834
2126 1 4.98115 -0.0943599 -4.03257
2350 1 4.94251 -1.12929 -4.27296
1657 1 5.7848 -1.39494 -3.37799
1289 1 6.71917 -1.20311 -3.84673
777 1 6.4558 -0.669411 -3.09062
1682 1 -6.05462 -5.8027 -1.51781
529 1 -6.25166 -6.76538 -2.63769
1930 1 -5.81663 -6.82907 -1.88584
1307 1 -4.67573 -6.48043 -2.02952
2870 2 -5.60296 -5.74185 -2.78375
609 1 -5.2726 -6.80761 -2.70842
1445 1 -4.03408 -6.00877 -2.63563
1456 1 -3.9495 -5.87013 -1.76265
2636 1 -3.77697 -6.73365 -1.86898
2962 2 -2.88151 -6.31414 -2.42094
3484 2 -2.36761 -5.84047 -2.26056
985 1 -2.48608 -6.97563 -1.72442
461 1 -1.38276 -6.51263 -1.85446
640 1 -0.843711 -6.20845 -2.47211
2825 2 -0.380758 -6.90991 -2.52763
3315 2 -0.295112 -6.7378 -1.65377
2881 2 0.581519 -6.82657 -1.6971
2683 1 1.60796 -5.88583 -1.97755
575 1 1.69898 -6.81509 -1.94941
1562 1 0.958252 -6.38667 -2.61029
1686 1 1.77423 -7.12376 -2.79817
2042 1 2.75754 -6.28161 -2.41741
243 1 2.63054 -5.99659 -1.64284
350 1 3.43419 -6.72513 -2.17864
949 1 3.45605 -5.85854 -1.76853
3491 2 4.31326 -6.49504 -2.54134
2813 2 4.73887 -5.92361 -2.08347
1187 1 5.79086 -6.64687 -1.97284
1968 1 4.97238 -7.14473 -2.04737
1066 1 6.08518 -5.99696 -1.58721
3486 2 7.07775 -6.63458 -2.1233
4 1 6.70355 -5.82139 -2.50987
2549 1 -5.8712 -4.76339 -1.52808
731 1 -6.51181 -5.62868 -2.50779
1819 1 -6.06636 -4.79374 -2.42931
986 1 -6.27819 -5.24549 -1.79143
3289 2 -4.97441 -5.60711 -2.34438
3309 2 -4.9279 -4.94176 -1.85242
2231 1 -3.81512 -5.1744 -2.26938
313 1 -3.99458 -4.47549 -2.53408
3261 2 -4.30755 -4.62849 -1.44023
1638 1 -1.96922 -4.66456 -2.19256
1256 1 -2.78267 -4.80551 -2.11549
57 1 -1.30592 -5.53829 -2.45651
1226 1 -1.07687 -4.8948 -1.7745
1616 1 -1.08492 -5.71182 -1.48451
978 1 -0.168688 -5.68128 -2.27211
2935 2 -0.302898 -4.75867 -2.76315
714 1 -0.0770223 -5.27375 -1.52707
3276 2 0.226309 -4.45791 -2.33894
2586 1 0.837616 -5.44205 -1.51214
2453 1 1.36735 -4.68845 -2.31606
1264 1 1.64434 -5.19931 -1.46352
632 1 0.743854 -5.65185 -2.22137
3095 2 2.35467 -5.35426 -2.50712
2792 2 2.63255 -4.88603 -1.79385
1776 1 3.57379 -5.64698 -2.57631
1972 1 3.34487 -4.82692 -2.76139
2367 1 4.41268 -4.96326 -2.39508
1273 1 3.66399 -5.13322 -1.91667
102 1 3.93257 -4.3161 -1.97937
1171 1 5.52083 -5.50231 -2.83228
1310 1 5.24362 -4.61547 -2.68618
2585 1 5.22459 -4.41204 -1.56273
3349 2 5.16181 -5.35386 -1.43698
1429 1 5.99765 -4.5703 -2.14961
2967 2 7.04312 -4.58133 -2.72046
620 1 6.21446 -5.39307 -2.0147
1041 1 7.08238 -5.32183 -1.80234
3396 2 -6.51354 -3.76559 -1.4704
623 1 -6.14613 -3.86713 -2.69185
3007 2 -6.93404 -4.1684 -1.91813
1699 1 -7.06225 -3.37753 -2.83668
1146 1 -6.15509 -2.98946 -2.0673
476 1 -6.94493 -2.95174 -2.16047
1725 1 -4.6159 -4.02846 -2.64809
1464 1 -5.38163 -3.72179 -2.07578
1755 1 -5.34083 -2.99818 -1.9281
1124 1 -4.23518 -3.57809 -1.75628
1757 1 -3.81916 -3.54817 -2.73747
126 1 -3.3101 -3.98765 -2.076
1693 1 -3.43115 -2.98473 -2.08483
3427 2 -2.28414 -3.58235 -2.73319
2245 1 -2.59963 -4.08842 -1.64065
1614 1 -2.8948 -3.26246 -1.56531
2997 2 -2.02623 -3.28069 -2.14012
397 1 -1.32123 -4.14197 -2.27527
1501 1 -0.684876 -3.59668 -2.38869
3424 2 -1.56234 -3.33316 -1.59498
1844 1 -0.478185 -4.04152 -1.65032
3371 2 0.510585 -4.19182 -1.73094
894 1 0.106559 -3.37067 -2.47243
1641 1 1.69593 -3.99191 -2.19634
1155 1 1.04835 -3.02246 -2.50958
2233 1 1.79954 -3.26084 -1.7449
2059 1 2.37251 -3.70125 -1.65688
2626 1 2.91308 -4.09035 -2.74232
2573 1 3.15903 -3.38188 -1.56155
1588 1 3.39984 -3.81423 -2.22828
3287 2 4.31595 -3.87187 -2.70635
23 1 3.99377 -2.97869 -2.02415
2904 2 4.90492 -3.60419 -2.12456
3478 2 5.4035 -2.97928 -1.67243
69 1 5.80815 -3.57027 -2.7975
477 1 6.4359 -3.87172 -2.28963
396 1 6.42914 -2.89466 -2.11877
3594 2 -6.85132 -1.76952 -2.49911
2114 1 -5.72662 -2.31894 -2.56887
1981 1 -5.25173 -1.81865 -2.15229
402 1 -4.55149 -1.59908 -2.70455
3461 2 -3.77072 -2.18238 -1.61686
2754 2 -4.2652 -2.48452 -2.16993
2266 1 -2.87416 -1.79405 -2.2481
2008 1 -2.36201 -1.57202 -1.49108
1623 1 -2.69546 -2.49678 -1.90897
19 1 -1.44169 -2.5322 -2.75287
1269 1 -0.951054 -1.51092 -1.7234
1326 1 -1.87219 -2.12366 -2.37777
2212 1 -1.06459 -1.94325 -2.40203
2187 1 -1.63613 -1.98083 -1.57367
191 1 -0.316156 -2.01601 -1.73507
557 1 -0.614141 -2.74879 -2.20486
1928 1 0.30538 -2.7275 -1.9471
2940 2 0.508873 -1.82156 -2.33784
2004 1 1.36844 -2.5065 -1.688
658 1 1.37964 -2.29385 -2.62477
2205 1 1.81109 -2.00041 -2.01505
2938 2 2.97948 -2.34511 -2.04388
3580 2 2.50382 -2.86226 -2.59265
706 1 3.99942 -1.74034 -2.3703
159 1 4.29214 -2.34762 -1.88288
1448 1 5.11766 -2.03329 -2.16609
218 1 4.72838 -2.62178 -2.83072
2678 1 4.59335 -1.48669 -1.57667
699 1 6.11935 -2.04095 -2.23535
3211 2 7.06028 -2.31597 -2.85272
454 1 6.60182 -1.74721 -1.62743
51 1 -6.98911 -0.505843 -2.61705
2488 1 -6.23073 -0.755106 -2.71405
3009 2 -6.37846 -1.41118 -1.82612
1215 1 -6.44705 -0.353646 -1.99267
1107 1 -5.40931 -0.717252 -2.23566
2604 1 -5.55958 -1.36608 -2.77586
379 1 -5.27769 -0.113057 -1.62655
1071 1 -3.66781 -0.929931 -1.44069
520 1 -4.5105 -1.10182 -2.07305
3450 2 -4.15762 -0.273341 -2.69599
1224 1 -3.64998 -1.18237 -2.48682
3148 2 -3.61342 -0.0257702 -2.0815
3400 2 -2.06109 -1.06275 -2.59778
227 1 -2.82492 -0.822173 -1.91919
3414 2 -1.49709 -0.495197 -2.21709
982 1 -0.291626 -0.962157 -1.65197
1321 1 -0.580925 -1.31342 -2.45911
26 1 -0.144082 -0.380073 -2.39646
834 1 1.93426 -0.16479 -1.73224
1162 1 1.10557 -0.435007 -2.53615
568 1 1.92951 -1.26353 -2.10176
2879 2 0.714794 -1.34318 -1.87665
1642 1 2.64005 -1.42006 -2.58028
3485 2 2.62496 -0.205234 -2.72107
1334 1 2.40986 -1.01651 -1.58944
772 1 3.25272 -0.955468 -2.01004
1478 1 3.38267 -1.26554 -2.85991
1953 1 4.17329 -0.690297 -1.92308
449 1 3.79961 -0.0626671 -2.55093
3263 2 4.80076 -0.885626 -2.59384
3381 2 5.47041 -0.784788 -2.20717
171 1 7.09175 -0.0308348 -2.01848
2465 1 6.93891 -0.629176 -1.52654
788 1 6.78712 -1.01422 -2.26215
3456 2 5.87522 -0.506457 -1.43631
2055 1 6.30089 -0.112508 -2.3261
1058 1 6.33073 -1.35772 -2.63556
2084 1 -6.0617 -6.98992 -1.0039
3187 2 -6.62943 -6.1876 -0.530633
2912 2 -7.0126 -6.38818 -1.34285
2800 2 -6.022 -5.76575 -0.324929
92 1 -5.32123 -6.35073 -1.34732
2132 1 -5.81386 -6.94591 -0.0880631
254 1 -5.13679 -6.60074 -0.174459
684 1 -4.57346 -5.99714 -1.09207
2976 2 -4.06844 -6.92701 -0.769429
2864 2 -3.5632 -6.47242 -0.324149
1688 1 -2.56096 -7.0212 -0.269422
2295 1 -2.54098 -6.29109 -0.976698
1558 1 -2.29003 -5.85151 -0.306319
105 1 -3.23951 -6.14736 -1.40917
2720 1 -1.84778 -6.7163 -1.23414
305 1 -1.00473 -6.42658 -0.887645
1810 1 -1.75461 -6.45379 -0.434891
1453 1 -0.108611 -6.22784 -0.389391
1013 1 -0.419634 -7.04729 -0.489895
3380 2 0.311017 -6.35151 -1.2604
1118 1 0.515518 -7.11376 -0.332495
1971 1 1.57516 -6.56011 -0.883412
3412 2 0.881605 -6.06982 -0.702445
1360 1 1.45585 -7.01812 -0.405407
3006 2 2.7511 -7.07623 -1.28255
1143 1 2.30199 -6.37692 -0.362227
118 1 2.02057 -5.8324 -1.12689
2743 2 3.42012 -6.46364 -0.180064
2885 2 3.29532 -6.63788 -0.830815
372 1 4.22207 -6.72203 -1.40716
989 1 4.38884 -5.86435 -0.992475
37 1 4.62535 -5.76767 -0.389169
2571 1 5.14629 -6.65802 -1.26609
2150 1 4.56467 -6.77287 -0.580997
2627 1 5.4715 -6.30851 -0.577889
1440 1 6.30061 -6.59739 -0.854749
412 1 6.47033 -6.41098 -0.116935
1515 1 -6.64823 -4.90602 -1.00656
646 1 -5.30886 -5.35379 -1.01746
2168 1 -4.99165 -4.47782 -0.326941
2570 1 -5.75118 -4.5669 -0.682436
2712 1 -4.70036 -5.20501 -0.445393
3280 2 -3.69411 -4.32114 -1.1537
1876 1 -3.97422 -5.36841 -0.691977
1299 1 -3.16084 -5.0916 -1.40019
1837 1 -2.47668 -4.5509 -0.817878
3591 2 -2.03861 -5.46821 -1.33398
1054 1 -3.20631 -5.3999 -0.628897
2773 2 -1.50342 -5.17406 -0.660476
201 1 -0.582626 -4.68708 -1.17093
1561 1 -0.114185 -5.25093 -0.40855
2272 1 -0.508235 -5.68569 -0.866707
2029 1 0.305508 -4.61836 -0.669343
943 1 1.05808 -4.8597 -1.07434
3542 2 1.26994 -5.70928 -0.11303
1553 1 1.78862 -4.37677 -1.36125
1365 1 1.35902 -4.37302 -0.372345
2744 2 3.15187 -4.43031 -1.2727
870 1 2.71616 -5.6301 -0.00631404
1007 1 2.49403 -5.08011 -0.70626
762 1 2.86805 -4.63246 -0.0237819
1345 1 3.44528 -5.51796 -0.951784
120 1 3.52431 -5.21434 -0.0508782
1611 1 4.32968 -4.51797 -1.39939
2696 1 4.15628 -5.00464 -0.712469
386 1 4.57837 -4.89947 -0.105843
1610 1 4.83256 -4.4759 -0.679177
2819 2 5.78026 -5.19612 -0.535763
3209 2 5.98755 -4.61802 -0.128097
2366 1 6.35765 -4.75828 -1.34692
796 1 6.84138 -5.44586 -1.07339
1482 1 6.8209 -5.59162 -0.218381
2610 1 -6.44709 -4.18196 -0.341886
2030 1 -6.9854 -3.03695 -0.767302
1158 1 -6.83967 -3.52708 -0.0569672
3090 2 -5.80044 -3.63304 -1.06201
1284 1 -4.86282 -3.97459 -0.976375
752 1 -5.55427 -4.12409 -0.00228979
3569 2 -5.64175 -3.12372 -0.519797
3512 2 -3.72412 -4.27027 -0.415753
1848 1 -3.679 -3.10147 -1.21599
2325 1 -4.36763 -3.35027 -0.770273
278 1 -3.48429 -3.13276 -0.451069
3200 2 -3.13589 -3.96047 -0.104696
347 1 -2.67595 -2.92057 -0.41016
830 1 -2.38228 -3.45131 -0.807456
2552 1 -1.77597 -3.67564 -0.304014
211 1 -1.53794 -4.24998 -1.20621
2047 1 -0.882549 -3.84141 -0.738393
1645 1 -0.101654 -3.72451 -0.361328
551 1 -0.392597 -3.21541 -1.33184
225 1 0.651008 -3.94824 -0.117376
1169 1 0.106344 -3.00651 -0.362562
3159 2 0.749247 -3.70277 -1.31344
3409 2 1.1234 -3.29867 -0.75971
2916 2 1.64624 -3.08697 -0.32271
1254 1 2.11617 -4.26905 -0.63091
460 1 2.54708 -3.68083 -0.013663
1100 1 2.77624 -3.2542 -0.718682
3163 2 3.54683 -4.06361 -0.754759
760 1 4.15159 -3.60196 -1.30896
2854 2 3.6831 -3.6478 -0.0743097
1922 1 4.82962 -3.75685 -1.0254
1750 1 5.69099 -3.83754 -0.681774
1491 1 4.93786 -3.02656 -0.40337
1069 1 6.84315 -3.98096 -0.629147
2279 1 6.04324 -4.10804 -1.42915
1104 1 6.64728 -3.35841 -0.275479
1037 1 6.65539 -3.44526 -1.18595
1444 1 -6.96934 -1.75256 -0.947252
1975 1 -6.58889 -2.49112 -1.25267
212 1 -6.62263 -2.62332 -0.117573
1832 1 -5.98308 -2.01941 -0.608655
813 1 -6.48194 -1.72985 -0.0668787
2589 1 -5.21491 -1.84741 -0.753386
1677 1 -5.81415 -2.4345 -1.40004
206 1 -4.67333 -1.55366 -0.301296
299 1 -4.84212 -1.48845 -1.38474
165 1 -4.97192 -2.61943 -1.25276
2441 1 -4.46811 -2.14553 -0.735204
390 1 -4.34265 -2.84795 -0.214815
2893 2 -3.32477 -1.82186 -0.865108
309 1 -2.28862 -2.45851 -0.938563
2852 2 -3.1469 -1.64533 -0.174458
1420 1 -1.99808 -2.51344 -0.189517
307 1 -1.86479 -1.67972 -0.735654
2752 2 -1.35564 -2.73418 -0.901589
3152 2 -0.640929 -2.29055 -0.503135
2374 1 0.352184 -1.82833 -0.824145
1384 1 0.245087 -2.60404 -1.0554
1551 1 1.28738 -2.26989 -0.965682
668 1 0.94006 -1.68111 -0.335036
2383 1 2.0678 -1.833 -0.792115
981 1 2.82586 -2.26172 -0.397668
458 1 2.31434 -2.63041 -1.11936
3331 2 3.38734 -2.0639 -1.29044
842 1 4.38037 -2.81702 -1.023
2544 1 3.71413 -2.18704 -0.0261411
3198 2 3.63635 -1.44782 -1.08153
925 1 3.65365 -2.77093 -0.790325
1001 1 5.7002 -1.72403 -1.40356
3284 2 5.7453 -2.70709 -1.07063
1235 1 4.75964 -1.96117 -0.925327
1332 1 5.36987 -1.71416 -0.30124
361 1 4.59059 -2.23552 -0.238901
3298 2 6.21745 -2.54031 -0.50337
2798 2 6.74255 -2.19874 -0.127015
2506 1 6.26596 -1.55235 -0.834248
697 1 6.90123 -2.52086 -1.4025
1661 1 -6.84255 -0.386598 -1.0253
2873 2 -5.88002 -0.923332 -0.55106
997 1 -7.1154 -0.819333 -0.225462
3214 2 -5.9428 -1.18349 -1.2105
446 1 -6.30962 -0.00563812 -0.30913
1407 1 -4.58309 -0.299087 -1.24753
2779 2 -5.11133 -0.749877 -0.588398
333 1 -3.94523 -0.127247 -0.7704
565 1 -4.13522 -1.0418 -0.789175
1607 1 -2.27488 -0.949587 -1.00242
1825 1 -3.05865 -0.703205 -0.763265
789 1 -2.85959 -0.0732043 -0.354157
2889 2 -1.31064 -0.570479 -1.41399
2888 2 -0.853154 -0.162843 -0.86951
1684 1 -1.93995 -0.276402 -0.520386
1513 1 -1.24666 -1.09802 -0.365127
1559 1 -0.542371 -1.25997 -0.738091
2263 1 0.134864 -1.13441 -0.866195
808 1 0.00347303 -0.470043 -0.465164
261 1 0.275551 -0.257603 -1.3622
2785 2 1.35079 -0.558098 -0.881931
3445 2 1.28097 -1.20764 -1.34333
1466 1 0.676297 -0.852285 -0.0795794
1780 1 2.88312 -1.19746 -0.134813
3044 2 2.07279 -0.138392 -0.213171