ITEM: TIMESTEP
0
ITEM: NUMBER OF ATOMS
3594
ITEM: BOX BOUNDS pp pp pp
-7.4590373125329394e+00 7.4590373125329394e+00
-7.4590373125329394e+00 7.4590373125329394e+00
-7.4590373125329394e+00 7.4590373125329394e+00
ITEM: ATOMS id type x y z
1255 1 -6.72445 -6.79357 -6.39286
2658 1 -6.64235 -7.356 -7.22537
1672 1 -5.13748 -6.55215 -7.43683
3162 2 -5.80242 -7.19514 -6.54689
2677 1 -4.25373 -7.23466 -6.98761
1812 1 -4.90765 -6.48078 -6.5819
435 1 -4.18035 -7.02868 -6.27205
632 1 -3.64386 -6.61706 -6.79706
264 1 -2.61438 -6.46805 -6.22664
488 1 -2.77725 -6.52406 -7.04191
1188 1 -2.00531 -6.48049 -7.14379
3274 2 -2.01656 -7.41134 -6.91915
2445 1 -0.940867 -6.65224 -6.85762
3402 2 -6.30393 -5.97086 -6.9975
156 1 -7.19354 -5.00813 -6.31702
2294 1 -7.17253 -5.21016 -7.07985
1307 1 -5.32188 -6.02063 -6.29617
2279 1 -5.21831 -5.06636 -7.31494
492 1 -4.27194 -5.5443 -7.40675
3214 2 -4.49245 -5.16549 -6.45343
3558 2 -4.31312 -5.79402 -6.45952
1074 1 -3.22791 -5.60709 -7.03497
1944 1 -1.62093 -6.02041 -6.39807
2326 1 -0.629948 -5.71314 -6.45844
2008 1 -7.01871 -4.10785 -7.0382
696 1 -5.04293 -4.0105 -6.63543
96 1 -6.05 -4.16372 -6.84864
1281 1 -4.37791 -4.41579 -7.37618
462 1 -3.56716 -4.8679 -7.25919
1240 1 -3.32322 -4.87378 -6.49263
2631 1 -3.60076 -4.10303 -6.76546
2790 2 -2.25714 -4.12978 -6.33113
3294 2 -2.33842 -4.82048 -6.99593
152 1 -1.3431 -4.94829 -6.26791
2566 1 -1.29484 -4.35896 -7.11984
1314 1 -0.561916 -4.89847 -6.94166
3518 2 -0.168768 -3.75956 -7.33692
1744 1 -6.74197 -2.80905 -6.2691
752 1 -6.64284 -3.27527 -7.21988
1520 1 -5.50668 -3.13315 -7.29261
711 1 -5.82432 -3.07835 -6.62265
2874 2 -4.31273 -2.93879 -6.69259
1151 1 -4.33734 -3.55771 -7.45477
463 1 -3.25349 -3.30063 -6.39055
408 1 -1.31106 -3.63003 -6.80415
3236 2 -2.25656 -3.18405 -6.54557
116 1 -2.41317 -3.61745 -7.4252
992 1 -0.486146 -3.08838 -6.46561
268 1 -6.57229 -1.55689 -6.56525
1357 1 -6.77757 -2.26543 -7.07071
2361 1 -6.30414 -2.28464 -6.23319
3457 2 -5.05763 -2.1405 -6.63251
2830 2 -5.54596 -1.52807 -7.17461
1006 1 -3.9226 -1.55265 -6.44206
2076 1 -4.28154 -1.4531 -7.18765
845 1 -3.08579 -2.48519 -6.32047
2228 1 -1.61999 -1.42595 -6.82467
375 1 -2.2988 -1.926 -7.15763
1690 1 -2.32025 -1.98485 -6.35372
865 1 -1.21598 -2.32637 -7.02262
499 1 -0.187538 -2.46829 -7.06756
328 1 -6.66393 -0.825367 -7.20893
214 1 -6.09101 -0.77766 -6.43842
511 1 -5.58286 -0.0819866 -6.87195
2142 1 -5.38875 -1.10025 -6.32441
2300 1 -4.04223 -0.367135 -6.30823
1423 1 -4.70117 -0.859719 -6.80607
2836 2 -3.03755 -0.858 -6.851
3188 2 -1.32707 -0.200131 -6.33341
592 1 -1.9913 -0.839091 -7.04883
2916 2 -0.856783 -0.20681 -6.89376
3534 2 -0.630204 -1.10865 -7.08083
1282 1 -6.62574 -6.66935 -5.44908
3212 2 -5.6569 -7.30585 -5.69315
1298 1 -5.80374 -6.24525 -5.33557
395 1 -4.80884 -6.63531 -5.60758
2227 1 -3.98214 -6.92633 -5.56373
964 1 -3.1217 -6.88411 -5.36376
1530 1 -2.50896 -7.37201 -5.80788
1002 1 -2.35569 -6.6222 -5.066
2917 2 -1.70422 -7.08672 -6.19544
3594 2 -1.32898 -6.58835 -5.61096
1965 1 -0.219715 -6.99315 -6.04477
2403 1 -6.2792 -5.05268 -6.16755
2859 2 -7.11449 -5.96684 -5.87793
3472 2 -6.3345 -5.4415 -5.0657
2104 1 -4.98282 -6.00457 -5.28229
2007 1 -5.26989 -5.31644 -5.92488
3493 2 -4.1789 -5.62127 -5.62834
1546 1 -2.49692 -6.00676 -5.36763
1359 1 -2.52393 -5.35395 -6.02839
2807 2 -3.59417 -5.85365 -5.88714
1162 1 -1.83979 -5.3311 -5.48517
1068 1 -0.249699 -6.17208 -5.19548
1061 1 -0.563436 -5.33156 -5.62122
3368 2 -6.66919 -3.81114 -5.91568
1842 1 -5.09113 -4.39774 -5.60229
2597 1 -5.93905 -4.56317 -5.44092
1562 1 -4.20585 -4.59221 -5.5571
71 1 -4.15522 -3.81915 -6.20826
1720 1 -2.94376 -4.14785 -5.26589
1819 1 -3.34407 -4.76122 -5.666
1037 1 -2.33382 -4.69221 -5.02651
1692 1 -1.1735 -4.34257 -5.42289
2568 1 -0.78057 -4.17451 -6.16682
2019 1 -0.133928 -4.60581 -5.33698
1831 1 -6.45559 -2.70804 -5.1797
2866 2 -7.19364 -3.59203 -5.28101
1122 1 -5.67566 -2.88269 -5.62335
181 1 -5.79481 -3.62411 -5.70678
2644 1 -4.39682 -2.91778 -5.14079
3312 2 -4.50103 -2.54575 -6.16986
1964 1 -4.83084 -3.6041 -5.43332
2654 1 -3.58314 -3.61707 -5.4809
3109 2 -1.67537 -3.36721 -5.76415
983 1 -2.36049 -3.01999 -5.08672
708 1 -0.0193118 -3.28847 -5.76228
3588 2 -1.18277 -3.00291 -5.35232
383 1 -6.74754 -1.58402 -5.79584
554 1 -7.09518 -1.94858 -5.09154
2594 1 -5.77234 -1.74495 -5.75174
323 1 -5.07498 -2.39294 -5.38587
1461 1 -4.4442 -1.74053 -5.07537
735 1 -4.00368 -2.05463 -5.63264
1063 1 -2.56298 -2.33776 -5.45877
2139 1 -3.31692 -1.66314 -5.8696
975 1 -2.3182 -1.52272 -5.29415
2333 1 -1.25377 -1.25702 -5.94112
3583 2 -1.35751 -2.28781 -5.5817
2728 1 -0.480764 -1.99507 -4.98094
682 1 -0.517629 -2.12568 -6.05989
85 1 -6.22353 -1.01446 -5.565
3002 2 -7.27789 -0.125105 -5.7431
3503 2 -5.27568 -0.103133 -5.88233
1166 1 -5.20423 -1.13261 -5.13502
3411 2 -4.79414 -0.236082 -5.44743
2440 1 -4.47027 -1.192 -5.98176
915 1 -3.55376 -0.863931 -5.70518
1990 1 -2.60325 -0.698103 -5.36096
1998 1 -3.1969 -0.102478 -5.80352
2202 1 -2.25733 -1.2308 -6.21308
2201 1 -1.61139 -0.790028 -5.30733
904 1 -0.276134 -0.200573 -5.92288
409 1 -0.762428 -0.357983 -5.3402
1722 1 -0.332553 -1.05331 -5.72593
2078 1 -6.93646 -7.04649 -4.38386
791 1 -6.10917 -7.19539 -4.54126
1333 1 -5.57054 -6.50392 -4.41248
1733 1 -4.19225 -6.88233 -4.83479
793 1 -4.80159 -7.14034 -3.73904
628 1 -3.35654 -6.32287 -4.26767
1376 1 -1.65568 -7.11023 -4.27211
3097 2 -2.42728 -6.3373 -3.9895
182 1 -1.11801 -6.29756 -4.28702
3401 2 -0.590933 -7.18411 -4.92757
2800 2 -6.6431 -5.92099 -4.47057
1356 1 -7.33118 -5.3372 -4.13421
1793 1 -5.36945 -5.51082 -4.63731
1640 1 -4.25628 -5.39401 -3.80887
565 1 -4.29003 -6.01968 -4.55351
2888 2 -2.82247 -5.43706 -4.23169
3261 2 -3.42792 -5.67704 -4.95797
1764 1 -1.94042 -5.24544 -4.39461
3486 2 -0.949309 -5.10092 -4.71074
1824 1 -6.45868 -4.54596 -4.59713
1671 1 -6.91293 -4.44579 -3.73467
507 1 -5.55023 -4.47749 -4.72826
2240 1 -5.19967 -3.73513 -4.69613
1810 1 -5.08822 -4.82877 -3.73866
2664 1 -3.95466 -4.02066 -4.88493
1279 1 -4.63559 -4.90309 -4.65671
3140 2 -3.54249 -4.65624 -4.29459
278 1 -1.54756 -4.50237 -4.13084
1442 1 -1.99147 -3.85785 -4.30959
2494 1 -2.26574 -4.83898 -3.80387
2824 2 -0.269762 -4.75765 -4.33199
2389 1 -6.90172 -3.13222 -4.07504
2417 1 -5.75965 -2.84281 -4.86169
2220 1 -6.144 -3.3755 -4.58536
3420 2 -5.7214 -2.5748 -3.87017
2119 1 -4.50609 -2.96645 -3.98874
3292 2 -3.3562 -2.5311 -4.82638
3211 2 -3.46779 -3.03476 -4.15336
2090 1 -2.77526 -3.71398 -4.31915
1893 1 -1.48352 -3.70786 -3.78262
1657 1 -1.56104 -2.96027 -4.34531
13 1 -0.519839 -2.87345 -4.54487
1115 1 -0.835079 -3.68359 -4.64674
3014 2 -6.51962 -1.46675 -3.92439
255 1 -6.62379 -2.29369 -4.66259
3528 2 -5.63788 -1.93285 -4.35349
998 1 -4.40679 -2.09506 -4.2519
1003 1 -4.34766 -1.4291 -3.8002
3010 2 -3.1581 -1.74019 -4.79465
1770 1 -2.43741 -1.4643 -3.9092
1505 1 -2.0985 -2.27394 -4.35223
1613 1 -1.796 -1.33444 -4.57203
11 1 -0.356987 -2.0599 -3.81705
142 1 -7.0557 -0.841402 -4.83549
1588 1 -6.41877 -0.32334 -4.50818
1861 1 -5.71176 -0.757053 -4.57977
1960 1 -4.83109 -0.838719 -3.89764
1548 1 -4.87184 -0.173203 -4.32484
3148 2 -4.13522 -0.853767 -4.95891
3182 2 -3.65119 -0.754916 -4.45864
2543 1 -2.63339 -0.581133 -3.789
1396 1 -2.32229 -0.702557 -4.65714
2315 1 -2.18662 -0.010924 -4.72239
1736 1 -1.12373 -0.268792 -4.3551
3143 2 -0.117027 -0.703255 -4.05423
1032 1 -1.22358 -1.08881 -3.97171
871 1 -0.787223 -1.20292 -4.66769
3560 2 -6.30305 -6.63626 -3.66262
2645 1 -6.7215 -6.2922 -2.74971
750 1 -7.11576 -6.97091 -3.21722
1177 1 -5.85459 -6.88142 -2.55634
3248 2 -5.63897 -6.35617 -3.43511
335 1 -4.16952 -6.82358 -3.0294
2829 2 -2.66198 -6.43746 -3.16148
765 1 -3.69642 -7.08927 -3.56226
349 1 -2.85613 -7.27556 -2.64664
713 1 -1.94668 -7.34294 -3.32862
2079 1 -0.863817 -6.27983 -2.9333
1159 1 -1.23268 -6.87119 -2.98362
2317 1 -0.287865 -6.2251 -3.70216
795 1 -7.00239 -5.72745 -3.31203
1501 1 -5.75905 -5.4432 -2.78377
2947 2 -6.16207 -5.71737 -3.66937
3265 2 -4.7491 -5.93567 -3.09764
3372 2 -4.79176 -5.39695 -2.56098
49 1 -3.49854 -5.70691 -3.28621
2692 1 -3.00759 -5.15102 -2.93105
570 1 -2.43587 -5.48409 -3.13058
514 1 -1.42473 -5.1477 -3.49896
2348 1 -1.73132 -5.80174 -3.55242
1619 1 -0.655698 -5.34151 -3.06874
687 1 -6.89515 -4.93297 -2.98673
970 1 -6.44986 -4.42331 -2.78339
2687 1 -5.82139 -4.31206 -3.71704
3269 2 -5.29588 -4.55424 -2.62576
2628 1 -3.94141 -4.80218 -3.01185
2572 1 -3.87156 -3.73066 -3.14189
3592 2 -4.72856 -4.03899 -2.539
667 1 -3.06207 -4.12792 -3.51732
1791 1 -3.49535 -4.31373 -2.64601
2750 2 -1.52092 -4.84465 -2.5691
3538 2 -2.07065 -4.07573 -2.92329
357 1 -0.728554 -4.49911 -3.24916
1233 1 -7.3183 -3.11677 -3.34998
2563 1 -6.82934 -3.71801 -3.16787
1558 1 -5.05061 -3.25332 -2.60465
1197 1 -5.63723 -2.7175 -2.61453
3023 2 -5.81768 -3.39473 -3.48769
576 1 -4.26934 -2.94486 -2.88927
2265 1 -3.76985 -2.50249 -3.41697
512 1 -3.19108 -3.15887 -2.83181
2124 1 -1.90105 -2.78652 -3.19096
2375 1 -2.20938 -3.26281 -3.70296
59 1 -1.12614 -2.97029 -2.87659
215 1 -0.586972 -3.63943 -2.85304
920 1 -0.844169 -3.27808 -3.71645
1532 1 -0.0023083 -2.81739 -3.36816
2244 1 -0.028308 -3.69472 -3.71704
1561 1 -6.84328 -2.399 -3.05714
1987 1 -5.34757 -1.47524 -3.24417
2697 1 -5.68795 -1.89206 -2.5938
2368 1 -4.91004 -2.27855 -3.08707
854 1 -3.42138 -1.34678 -3.41879
2922 2 -3.03167 -1.9104 -2.55567
1897 1 -3.00217 -1.93539 -3.61843
3421 2 -2.09284 -1.85958 -3.08455
223 1 -0.62429 -2.0962 -3.04623
1813 1 -1.12484 -1.96619 -3.69858
2171 1 -6.49375 -0.102349 -3.46937
1680 1 -7.04561 -0.774156 -2.86943
1492 1 -5.62736 -0.606884 -3.66913
2009 1 -5.86364 -0.898348 -2.85208
3256 2 -4.78731 -0.399228 -2.78644
1168 1 -3.9646 -0.219937 -3.70416
3258 2 -4.28708 -1.14494 -2.62348
1664 1 -3.44832 -0.114608 -2.83911
1234 1 -3.03354 -0.661841 -2.98179
2378 1 -1.56954 -0.553029 -3.33937
1054 1 -2.39528 -0.386322 -2.91435
1947 1 -1.01999 -1.08773 -2.82989
2898 2 -0.120642 -0.882174 -3.22182
1735 1 -7.29007 -6.69694 -2.28917
663 1 -6.60275 -6.25133 -1.88571
1677 1 -5.66709 -6.74483 -1.62252
567 1 -4.10017 -7.06251 -1.39277
219 1 -4.77896 -6.9038 -2.41636
131 1 -3.09437 -6.89963 -1.4627
2335 1 -3.62443 -6.55943 -2.33371
2627 1 -2.06218 -7.045 -2.11112
1163 1 -1.23219 -6.84539 -1.33404
1614 1 -0.496777 -7.34014 -2.20303
1828 1 -0.798827 -6.58753 -2.08275
2248 1 -6.55276 -5.35261 -2.44562
2727 1 -5.36122 -5.34977 -1.59831
1715 1 -5.7893 -6.02788 -2.26962
3217 2 -4.54187 -6.17779 -1.84234
2469 1 -3.04303 -5.68968 -1.31452
2667 1 -3.61524 -5.70953 -2.46278
2181 1 -3.2664 -5.34731 -1.93125
3395 2 -2.41765 -6.16472 -2.33204
3464 2 -1.69135 -5.54527 -2.01779
207 1 -0.0666142 -5.99197 -1.95819
2596 1 -0.962475 -5.96532 -1.39977
1 1 -0.508335 -5.18833 -1.97845
2598 1 -6.60838 -4.56513 -1.42123
552 1 -6.10038 -4.8077 -1.94772
2481 1 -5.29818 -4.21338 -1.61161
269 1 -6.13469 -3.82148 -1.4538
2073 1 -4.28986 -4.32739 -1.31048
1986 1 -3.87287 -4.76151 -1.79988
2779 2 -2.76254 -4.40711 -1.9719
624 1 -1.24995 -4.37439 -1.3344
3370 2 -2.16247 -4.95341 -1.92465
2785 2 -1.51241 -3.95202 -2.37108
2032 1 -0.557904 -4.26153 -2.31998
1397 1 -0.273006 -3.99881 -1.39705
403 1 -6.42764 -2.81265 -2.43707
3569 2 -7.33421 -3.44062 -1.31882
1528 1 -6.44583 -2.91752 -1.51211
1031 1 -6.3293 -3.70959 -2.32115
1437 1 -5.54353 -3.26783 -1.90953
1443 1 -4.45626 -2.72217 -1.90151
1059 1 -3.55811 -3.04341 -1.5568
2383 1 -2.50296 -2.78173 -2.29009
460 1 -1.73371 -2.60137 -1.7005
447 1 -2.30076 -3.34686 -1.67025
3453 2 -0.576776 -3.1539 -1.90172
2038 1 -6.50161 -1.89257 -2.10639
185 1 -7.3221 -1.68697 -2.46451
52 1 -7.15173 -2.07292 -1.61826
3427 2 -5.26049 -2.1154 -1.65638
2963 2 -4.44756 -1.80192 -2.30004
2021 1 -3.11745 -1.51485 -1.40728
3307 2 -3.68291 -1.91629 -2.41563
3380 2 -2.45973 -1.31916 -2.38704
1994 1 -1.25839 -2.30186 -2.35221
1666 1 -0.798326 -1.69733 -2.1128
1304 1 -6.4161 -1.09931 -1.82457
1476 1 -7.27737 -1.02416 -1.97766
504 1 -5.92294 -0.61349 -1.60947
2761 2 -4.99808 -1.20398 -2.18266
2319 1 -6.1251 -0.314601 -2.45893
358 1 -3.89474 -1.0925 -1.56274
296 1 -3.827 -0.428343 -2.08425
1701 1 -2.98941 -0.796136 -1.79678
3039 2 -1.81164 -1.11438 -2.19749
1103 1 -1.96511 -0.553134 -1.45229
1406 1 -0.739636 -0.203579 -2.14227
2422 1 -0.197282 -1.19284 -1.45322
949 1 -0.724347 -0.0100038 -1.28082
1629 1 -6.96067 -6.69626 -1.07746
3011 2 -5.74188 -7.18679 -0.593358
2177 1 -5.41877 -6.21769 -1.1737
2666 1 -4.93014 -7.28806 -0.949282
1961 1 -4.8117 -6.64469 -0.409216
432 1 -4.72146 -7.44114 -0.00830352
2446 1 -3.47495 -7.03839 -0.705091
313 1 -2.75081 -6.93728 -0.43594
2082 1 -2.324 -6.28783 -1.06334
1553 1 -2.03452 -7.1152 -1.22732
3343 2 -0.275737 -6.40734 -0.488742
2662 1 -0.794151 -7.34954 -0.678162
2937 2 -6.77685 -5.77534 -0.277544
3546 2 -6.89329 -5.46939 -1.1571
1760 1 -6.07555 -5.56168 -1.22519
3177 2 -5.97738 -5.06925 -0.129117
3490 2 -6.10795 -6.08791 -0.113432
1205 1 -4.90131 -5.47637 -0.53947
3302 2 -3.95765 -5.9267 -0.860727
2242 1 -2.67067 -6.09117 -0.236325
676 1 -2.82876 -5.25886 -0.581927
1289 1 -1.82729 -5.40581 -0.499442
2949 2 -0.247306 -5.42013 -0.865135
2690 1 -1.20466 -5.26376 -0.926634
2016 1 -6.33686 -3.82348 -0.718457
629 1 -6.8499 -4.48158 -0.286808
2842 2 -5.58694 -4.37664 -0.488004
1424 1 -4.75258 -4.56262 -0.0739404
2161 1 -3.78226 -4.48572 -0.481444
132 1 -4.19839 -3.73551 -0.189489
999 1 -3.44049 -3.83365 -1.05624
106 1 -3.21666 -4.78803 -1.14049
967 1 -1.85775 -4.09013 -0.0562387
1007 1 -2.19736 -4.61064 -0.843332
2212 1 -0.688694 -4.51347 -0.379574
2046 1 -6.33319 -2.92212 -0.391279
2130 1 -6.81363 -3.6632 -0.243097
2952 2 -7.41852 -2.81902 -0.841005
3567 2 -5.27809 -2.68189 -1.14512
2871 2 -5.27921 -3.09789 -0.401843
2578 1 -4.18598 -2.55635 -0.909897
1428 1 -4.77428 -3.67503 -1.156
2264 1 -3.52798 -2.83628 -0.464812
176 1 -2.73341 -2.71301 -0.0452159
2855 2 -1.45717 -2.63108 -0.244392
2484 1 -1.42735 -3.52722 -1.22332
989 1 -2.46621 -3.6474 -0.889195
1310 1 -0.769184 -3.35772 -0.815277
3204 2 -6.97052 -2.15253 -0.495916
3444 2 -6.21008 -2.00014 -0.898333
1859 1 -5.91944 -1.25371 -0.0709384
1143 1 -5.82038 -2.26891 -0.00346465
345 1 -4.99192 -2.14092 -0.00329972
2233 1 -4.16365 -1.73983 -0.981936
7 1 -4.86444 -1.5427 -0.643724
2763 2 -3.21883 -1.71828 -0.330332
25 1 -2.09613 -1.66662 -0.135521
2285 1 -1.60052 -1.44536 -0.657476
94 1 -2.44047 -2.219 -1.04251
188 1 -0.00464459 -1.29297 -0.37283
3471 2 -0.554569 -2.01837 -0.793434
3122 2 -6.79461 -0.0576484 -1.17275
2385 1 -6.78814 -0.95416 -0.284459
1290 1 -6.994 -1.0945 -1.16099
1860 1 -5.79823 -0.852391 -0.817059
1921 1 -4.70487 -1.03072 -1.237
1807 1 -4.95587 -0.297115 -1.08204
1130 1 -3.85227 -0.538761 -0.909409
2135 1 -4.74751 -0.356781 -0.26551
2616 1 -3.74255 -0.184772 -0.190016
2721 1 -2.62983 -0.959512 -0.782667
1093 1 -2.52154 -0.173453 -1.11189
2363 1 -2.86196 -0.14328 -0.329322
3300 2 -1.70006 -0.153639 -0.392268
1631 1 -1.09762 -0.965044 -1.16242
1095 1 -0.809482 -0.473502 -0.295642
1794 1 -7.07181 -7.12137 0.378168
1962 1 -6.88822 -7.12908 1.22848
3223 2 -6.01273 -7.44812 0.528899
315 1 -5.37039 -6.66917 0.631426
1346 1 -3.91131 -6.37232 1.05914
2005 1 -4.76037 -7.04145 0.913707
485 1 -4.40185 -6.31961 0.327044
2852 2 -3.49219 -7.07534 0.321946
3573 2 -2.66257 -6.63203 1.18529
3268 2 -2.01795 -6.87783 0.76921
3216 2 -1.7253 -6.45826 0.0462381
974 1 -0.758608 -6.62424 1.09124
2637 1 -6.8652 -6.00497 1.12285
842 1 -6.98137 -5.00177 0.383097
1459 1 -6.32214 -5.20213 1.08762
1695 1 -5.81309 -5.96533 1.23672
875 1 -4.2129 -5.12928 0.660683
1454 1 -4.96951 -5.69893 0.244717
2025 1 -3.97631 -5.67663 0.113447
1663 1 -3.60687 -5.65242 1.08569
1389 1 -3.07906 -6.05064 0.360453
493 1 -2.79691 -5.67742 1.00112
1693 1 -2.39452 -5.09502 1.23861
1582 1 -1.72915 -5.54654 0.758685
1486 1 -2.09781 -5.01359 0.199068
2540 1 -0.865905 -5.01939 0.160042
634 1 -0.664545 -6.00673 0.819056
1264 1 -1.0459 -5.59138 1.0958
670 1 -0.00204456 -5.74947 0.275005
827 1 -7.43003 -4.88284 1.1979
1903 1 -6.7795 -3.91314 0.84878
740 1 -6.03016 -4.24644 1.0364
1409 1 -5.14217 -4.66704 1.02186
746 1 -4.4681 -4.14431 0.871608
3240 2 -3.45098 -4.34353 0.689476
2765 2 -3.10151 -4.92533 0.183424
3121 2 -2.82455 -3.96194 0.86248
2323 1 -1.77245 -4.40845 0.83946
3562 2 -0.813175 -4.09629 0.965429
3020 2 -0.376054 -4.7475 1.12181
3124 2 -0.0446859 -4.62695 0.381215
2393 1 -6.42141 -3.22738 0.419408
108 1 -6.83673 -3.06118 1.16864
2853 2 -5.37003 -3.6114 0.251224
192 1 -5.76299 -3.27761 1.20429
2496 1 -5.60808 -2.70737 0.602144
2246 1 -4.79438 -3.44465 1.1222
973 1 -4.47025 -3.00612 0.101196
1543 1 -4.01526 -3.05504 0.747473
3578 2 -3.10887 -3.71175 0.153183
1580 1 -3.04612 -2.93207 0.964475
718 1 -2.36732 -2.56582 0.756105
379 1 -1.89732 -3.20647 0.577335
1226 1 -0.880224 -3.53229 0.302211
940 1 -0.360074 -2.84285 0.157277
3139 2 -6.77073 -2.04054 0.53241
3246 2 -6.58677 -1.37695 1.13948
2831 2 -5.93319 -1.73913 1.1283
1224 1 -4.20039 -1.25625 0.0521792
2474 1 -4.62427 -1.64767 0.687857
3273 2 -3.11356 -1.93487 0.540718
2856 2 -2.49131 -1.36301 0.714854
489 1 -1.51384 -1.8081 0.995019
2402 1 -0.511145 -1.3582 0.982151
1583 1 -0.909311 -2.26346 0.704501
1375 1 -0.0451078 -2.10116 0.577033
2290 1 -1.10207 -1.32826 0.162582
249 1 -6.22981 -0.425492 0.836004
2573 1 -6.94195 -0.704507 0.515647
523 1 -5.67436 -0.983809 0.600959
976 1 -4.77395 -0.461796 0.480563
1683 1 -3.85302 -1.21129 0.834547
731 1 -3.32172 -0.328317 0.664232
3452 2 -1.87112 -0.582964 0.137046
3241 2 -1.65999 -0.764084 0.837142
2421 1 -0.605241 -0.474018 0.474799
926 1 -6.84779 -6.96029 2.11937
3196 2 -5.85152 -6.95109 1.7914
2153 1 -4.22028 -6.97842 1.52858
2552 1 -4.84722 -6.97057 2.32349
1996 1 -4.84068 -6.40492 1.67361
2558 1 -3.59795 -7.41848 1.43036
3053 2 -3.3059 -6.48275 2.22683
2350 1 -2.06319 -6.84456 2.2736
2519 1 -1.13424 -7.07417 1.52678
2574 1 -1.22867 -6.29195 2.05648
526 1 -6.68729 -6.18209 2.05156
1386 1 -6.74398 -5.02192 1.68289
1262 1 -6.93889 -5.32081 2.37259
1584 1 -7.45604 -5.80625 2.3594
3432 2 -5.23861 -5.151 1.8016
1889 1 -6.12941 -5.63924 2.23018
3494 2 -4.61661 -5.56175 1.45679
3032 2 -4.05959 -5.7939 2.19611
707 1 -3.34449 -5.12086 1.77955
3369 2 -1.58334 -5.1708 2.09738
2218 1 -2.47078 -5.90065 2.48379
950 1 -1.6974 -6.1342 1.50933
1283 1 -0.569385 -6.06037 1.74423
3198 2 -6.2362 -3.83786 2.40671
1801 1 -7.13598 -4.24715 1.73781
3456 2 -5.82782 -4.33322 2.01411
2176 1 -4.42881 -3.98257 1.70637
2495 1 -4.28337 -4.66803 1.75987
1991 1 -3.32395 -4.3898 1.79082
2533 1 -2.44392 -4.64181 2.093
2453 1 -1.84733 -4.17014 1.55926
3376 2 -0.967782 -4.90151 1.82198
1047 1 -1.09997 -3.78975 2.04615
2232 1 -6.29546 -2.74246 1.80219
389 1 -6.88772 -3.55016 1.72635
179 1 -5.18916 -3.5909 2.06701
2407 1 -5.25875 -2.76273 2.20411
691 1 -4.39482 -3.46591 2.34987
15 1 -3.81457 -3.44543 1.50147
2532 1 -2.87603 -3.60446 1.80675
1847 1 -3.42762 -3.18241 2.21302
1179 1 -2.68819 -2.77158 1.8386
3364 2 -1.49923 -2.72232 2.25218
850 1 -1.89357 -3.1674 1.42987
2991 2 -0.803894 -2.71333 1.47582
2231 1 -6.49037 -1.45233 2.06088
2329 1 -7.23177 -2.17421 1.55762
2789 2 -5.47508 -2.24089 1.381
935 1 -5.62633 -1.33686 2.19847
3590 2 -4.6629 -2.45538 1.41786
1456 1 -4.64665 -1.80189 2.28691
3571 2 -3.75834 -2.24162 1.52687
2061 1 -3.57724 -1.35828 2.32329
476 1 -2.64664 -1.27755 1.696
279 1 -2.93256 -1.81317 2.05701
1193 1 -2.3321 -2.12705 1.49242
2229 1 -1.5861 -1.65245 1.81966
2511 1 -0.8809 -1.48784 1.86956
3520 2 -0.0718623 -2.32777 1.59059
2404 1 -7.01072 -0.22299 1.37204
189 1 -7.14514 -0.473762 2.0444
467 1 -5.01898 -0.697419 1.81699
558 1 -6.02567 -0.380998 2.01784
2001 1 -4.25658 -1.04404 1.64713
114 1 -2.55013 -0.561559 2.17916
2537 1 -3.38087 -0.662856 1.59517
563 1 -1.764 -0.69912 2.45439
738 1 -2.42762 -0.516451 1.38308
3591 2 -1.08448 -0.312588 1.40375
288 1 -0.278208 -0.935265 1.89273
857 1 -6.81938 -7.37038 2.73964
1273 1 -6.80931 -7.18666 3.59122
1294 1 -5.52512 -6.76069 3.571
89 1 -4.73632 -6.56737 3.36172
851 1 -4.26916 -7.1921 3.09113
494 1 -2.65989 -6.85589 2.84797
2844 2 -3.40401 -6.74952 3.69067
3462 2 -3.6213 -6.28911 3.0319
3024 2 -1.46078 -6.51452 3.41999
2840 2 -0.445036 -7.05363 2.4889
3028 2 -1.18487 -7.22278 2.80777
2388 1 -0.344474 -6.42881 3.63666
2576 1 -7.15641 -6.00683 3.22973
2051 1 -5.1998 -6.12463 2.84012
1305 1 -6.18656 -5.14617 3.12889
2444 1 -5.29252 -5.12756 2.88317
446 1 -6.0399 -6.12369 3.18742
277 1 -4.47872 -5.56955 3.07178
2059 1 -3.54844 -5.03139 2.78767
251 1 -2.56554 -6.0743 3.39039
881 1 -3.60989 -5.086 3.63569
1303 1 -2.76871 -5.254 2.86474
2878 2 -1.6306 -5.87579 3.12336
1887 1 -0.797533 -5.00381 3.61284
1526 1 -0.30543 -5.39057 2.90704
2182 1 -0.568969 -5.99732 2.64032
1916 1 -7.07117 -4.79932 3.41614
2868 2 -7.44444 -4.13618 2.77697
2686 1 -5.78231 -4.38567 3.16959
406 1 -5.08313 -4.08985 3.67881
39 1 -4.25747 -4.66004 3.39389
2044 1 -4.64484 -4.35809 2.52765
3213 2 -3.39487 -3.96423 2.80442
3289 2 -2.98574 -3.85292 3.45067
1393 1 -2.15835 -4.76736 3.34625
2589 1 -1.57052 -4.12264 2.95933
2648 1 -2.19879 -3.89197 2.58468
1581 1 -0.709396 -3.88753 3.49087
448 1 -0.730817 -4.18498 2.81273
2748 2 -6.73136 -3.53836 2.85764
1131 1 -6.59125 -2.53343 2.58492
292 1 -6.67644 -2.56936 3.51441
1932 1 -5.72059 -3.32954 3.37716
164 1 -5.08864 -3.59656 2.89899
1431 1 -5.77844 -2.7058 3.05112
1820 1 -4.4267 -2.77536 2.66193
2985 2 -3.79485 -3.42927 3.3584
295 1 -3.07987 -2.55269 2.76805
1878 1 -3.46763 -2.55685 3.55616
832 1 -2.54778 -3.0141 3.32212
2498 1 -1.3224 -3.4488 3.25704
3079 2 -1.80078 -2.588 2.83174
1160 1 -0.116495 -3.10542 2.62271
1798 1 -7.34126 -1.29947 3.54695
162 1 -5.17785 -1.74573 3.09905
1935 1 -5.66337 -2.03191 2.56441
267 1 -6.17274 -1.68835 3.14413
909 1 -4.25301 -1.91543 3.08433
3262 2 -2.71094 -1.32298 2.93284
3535 2 -2.08714 -1.88698 2.89834
1518 1 -0.535548 -2.35585 3.02837
630 1 -0.940842 -2.40822 3.68095
355 1 -0.721836 -1.58104 2.5695
1245 1 -0.164833 -1.64163 3.61239
208 1 -7.20738 -0.858334 3.03983
3385 2 -6.49383 -0.13669 3.49499
2718 1 -6.38321 -0.889232 2.69332
3479 2 -5.48872 -0.322268 3.12242
3316 2 -4.50601 -0.835669 3.30752
3557 2 -3.46566 -0.994968 3.24276
1319 1 -3.22345 -0.197306 2.59734
1624 1 -1.4585 -0.421265 3.19815
1857 1 -2.25926 -0.0565366 3.01508
2542 1 -1.9432 -1.01801 3.58894
3345 2 -0.51467 -0.467549 3.01019
2475 1 -1.01669 -1.20411 3.33799
1641 1 -6.5099 -6.79332 4.11236
3072 2 -5.63231 -6.56232 4.65007
2167 1 -4.69463 -7.12057 4.18726
3004 2 -3.55442 -6.77187 4.41743
1923 1 -2.74133 -7.34907 4.80709
3500 2 -1.55524 -6.38727 4.35589
939 1 -2.12362 -7.33714 4.42915
340 1 -1.35645 -7.43262 3.92411
557 1 -2.20836 -7.24672 3.77103
1079 1 -0.157654 -7.12702 3.93314
1557 1 -0.742638 -6.90028 4.4307
933 1 -7.4306 -5.41643 4.73664
581 1 -6.74248 -5.64857 4.88509
1388 1 -6.86901 -5.81502 3.94802
2927 2 -5.70305 -5.6201 4.20839
3113 2 -5.16371 -5.03287 4.14551
2635 1 -4.5031 -5.96196 3.84347
2398 1 -4.65131 -6.08652 4.59107
611 1 -3.86996 -5.58306 4.15816
64 1 -4.33374 -5.52479 4.90556
2057 1 -2.48778 -6.16823 4.25391
252 1 -3.17484 -5.85168 4.61833
217 1 -2.49612 -5.3924 3.97039
599 1 -1.73605 -5.06739 4.63236
3228 2 -1.23741 -5.74798 4.06209
1339 1 -0.69881 -5.28135 4.76058
774 1 -0.178404 -6.03857 4.77719
2450 1 -0.341675 -5.67788 3.86406
2867 2 -6.80507 -4.52432 4.44404
118 1 -6.272 -3.96077 3.79898
1338 1 -5.48291 -3.95222 4.24814
3209 2 -5.95067 -4.85712 4.35761
464 1 -4.22452 -3.82855 4.28779
2709 1 -3.963 -4.6019 4.4179
2806 2 -3.10653 -4.20386 4.01907
3299 2 -2.83039 -4.49921 4.63924
412 1 -1.74081 -4.01832 4.23739
807 1 -0.900543 -4.44707 4.52153
1094 1 -0.0332103 -4.06035 3.99606
1769 1 -6.84491 -3.191 3.95979
1102 1 -6.00657 -3.3051 4.23974
2951 2 -4.93935 -2.74523 4.51246
3087 2 -4.4871 -2.9277 3.79232
608 1 -2.88029 -3.32409 4.96562
1312 1 -3.0435 -2.94365 4.24336
1609 1 -3.55274 -3.35091 4.7142
1331 1 -2.135 -3.31297 4.22215
3096 2 -2.03546 -2.62557 4.94976
2870 2 -0.852362 -3.11334 4.69796
2534 1 -6.67894 -1.27448 4.19969
641 1 -6.80465 -2.1522 4.43743
2964 2 -6.14004 -1.30651 4.87066
3249 2 -5.60962 -2.14205 4.15938
2663 1 -4.59343 -1.68285 4.82776
2471 1 -4.50789 -1.783 3.86837
966 1 -4.04734 -1.32134 4.4126
37 1 -3.56768 -1.99085 4.17145
2707 1 -2.67127 -2.23766 3.95814
2354 1 -2.64619 -1.24499 4.01515
62 1 -3.11597 -1.27752 4.67416
843 1 -1.90578 -2.481 3.8929
3498 2 -2.32252 -1.90786 4.90956
1499 1 -1.56748 -1.61768 4.0325
1161 1 -1.01046 -1.91054 4.3358
2921 2 -6.3895 -0.408672 4.32698
3003 2 -5.83465 -0.351867 4.88229
1821 1 -5.74005 -1.09515 3.73751
2889 2 -4.63654 -0.0232456 4.95724
982 1 -4.94006 -0.8973 4.23751
1816 1 -2.71515 -0.315434 4.14955
1853 1 -3.58248 -0.450634 4.23013
2973 2 -1.62176 -0.422963 4.20171
417 1 -0.221707 -0.114979 4.06629
1051 1 -0.702801 -0.588871 4.01885
2757 2 -1.03754 -0.921039 4.83906
1512 1 -6.94776 -6.69163 5.08126
3363 2 -5.77047 -7.1886 5.15173
3157 2 -6.18303 -7.17452 5.84416
2652 1 -4.26958 -7.36758 5.50879
1190 1 -4.84062 -6.74261 5.39751
3328 2 -3.84191 -6.51013 5.10249
2321 1 -2.53677 -6.73493 5.16646
2133 1 -3.06304 -6.67891 5.74507
688 1 -2.46093 -7.19159 6.0135
2535 1 -1.84589 -6.71827 6.19552
3419 2 -0.626677 -7.18389 5.55784
3404 2 -0.474514 -6.32703 5.82068
2588 1 -6.69444 -5.70649 5.73376
615 1 -5.94333 -6.0328 5.36526
2392 1 -5.65866 -5.2199 5.332
1334 1 -4.95272 -5.81267 5.53183
2022 1 -4.63019 -5.53835 6.06948
470 1 -2.70471 -5.80724 6.15873
1915 1 -3.27102 -5.71386 5.49154
1772 1 -2.23022 -5.65039 5.09702
849 1 -2.21505 -5.07097 5.75422
1704 1 -1.66339 -6.14056 5.62908
2030 1 -1.14739 -5.99371 5.01078
2266 1 -6.39983 -4.77063 5.57257
3476 2 -6.98387 -3.89382 5.15916
3425 2 -7.31029 -4.4969 5.58257
1863 1 -5.69017 -4.20184 5.01472
1941 1 -5.90671 -4.0831 6.16361
421 1 -5.07382 -4.67869 5.81397
1979 1 -4.12728 -4.18023 5.85816
105 1 -4.16106 -4.97119 5.52275
200 1 -4.90733 -4.12898 5.02632
1075 1 -4.24592 -4.39391 5.04675
2810 2 -3.07858 -4.68355 5.29985
3060 2 -3.05104 -4.21181 5.93344
919 1 -1.54916 -4.44515 5.40703
12 1 -0.647722 -4.95811 5.48368
520 1 -0.133505 -4.15583 5.05249
1912 1 -7.25327 -2.9986 4.97617
2862 2 -5.29325 -3.13516 5.57204
2545 1 -6.16332 -3.53069 5.52797
3306 2 -4.46776 -2.56291 5.42826
1105 1 -4.3148 -3.63313 5.05718
1118 1 -3.77844 -3.3348 5.79926
263 1 -1.54736 -3.03891 6.16872
2734 2 -1.44147 -3.32978 5.21932
2241 1 -2.38925 -3.66956 5.51543
3326 2 -0.605367 -3.43428 5.77887
822 1 -6.60218 -2.46884 5.24738
1265 1 -6.30954 -2.24395 6.07617
796 1 -5.26344 -1.82113 5.51376
3169 2 -6.06379 -1.34228 5.76907
2390 1 -4.68443 -1.36236 5.85493
1761 1 -3.75383 -1.27084 5.12544
2303 1 -2.80078 -1.53694 6.0286
2980 2 -2.9246 -2.17461 5.36658
3237 2 -3.70211 -2.31204 5.19523
1070 1 -3.67602 -1.66088 6.02838
1489 1 -2.06669 -1.69602 6.00411
1938 1 -1.3911 -2.11305 5.555
2462 1 -0.111103 -1.95569 5.05547
1348 1 -0.894858 -1.53878 5.89679
2050 1 -0.644477 -2.40823 5.60095
429 1 -0.28505 -1.94611 6.14595
1752 1 -7.38459 -0.431169 4.97633
1342 1 -7.25265 -1.18021 5.85267
841 1 -6.57483 -0.486493 5.62054
2137 1 -5.46797 -0.616203 5.98424
1435 1 -4.84495 -0.855326 5.23116
3126 2 -4.21969 -0.190359 5.74592
929 1 -3.24761 -1.00088 5.59245
1415 1 -3.12565 -0.191592 5.3111
2020 1 -1.6612 -0.863542 6.01571
562 1 -2.34625 -0.698543 6.09968
3310 2 -2.07874 -0.569113 5.0968
3067 2 -1.94958 -1.20205 5.01722
3388 2 -0.296231 -0.942773 5.0373
61 1 -0.0243015 -0.767667 6.14218
981 1 -0.847197 -0.548915 5.85155
1600 1 -7.19265 -6.75584 7.40507
3243 2 -6.62897 -6.58333 6.29475
1567 1 -5.64775 -7.23351 7.04478
2053 1 -5.39992 -6.3695 6.44807
597 1 -5.08475 -7.015 6.26212
3487 2 -3.96542 -6.34557 6.26778
3321 2 -4.2402 -6.65931 6.90205
1511 1 -3.27792 -7.26085 7.10882
2360 1 -3.17054 -7.19066 6.35737
2950 2 -1.90158 -7.42977 7.33891
1452 1 -2.45372 -6.45322 6.91397
1030 1 -1.28305 -6.44609 6.83467
319 1 -1.04298 -7.06316 7.44397
788 1 -0.389647 -6.93773 6.71983
1468 1 -1.20472 -7.06612 6.55879
686 1 -7.31341 -5.28624 6.33196
2901 2 -6.28351 -6.10106 6.91506
237 1 -6.28702 -5.24283 6.50503
787 1 -7.08468 -5.39344 7.05501
2035 1 -5.25264 -5.85736 7.45698
2039 1 -5.54757 -5.05438 6.45537
174 1 -4.73501 -5.38949 6.73653
536 1 -3.59669 -5.39023 6.26864
2262 1 -2.63877 -5.15041 6.79263
1914 1 -3.24294 -5.80042 7.0249
3242 2 -1.69039 -5.6109 7.23973
1167 1 -0.423754 -5.01688 7.25011
2356 1 -0.680598 -6.17095 7.42214
3207 2 -1.12093 -5.5263 6.3524
840 1 -0.00530191 -5.81101 6.85662
3171 2 -6.90058 -4.23331 6.59171
3102 2 -5.08954 -4.23514 6.85556
1911 1 -6.06756 -4.89296 7.45231
235 1 -4.20548 -4.70985 6.70349
2520 1 -3.74407 -3.87275 6.73414
2134 1 -3.29855 -4.73312 6.86939
1133 1 -1.80188 -4.19106 6.28649
2328 1 -2.37643 -4.20124 6.87652
2678 1 -0.885987 -4.45008 6.55358
3379 2 -7.07737 -3.30327 6.29199
171 1 -5.90219 -3.62678 7.18657
1802 1 -6.11307 -2.85843 6.90217
2643 1 -4.88589 -2.55621 6.85544
3440 2 -4.79537 -3.65196 6.44613
1540 1 -4.13432 -2.91932 6.60344
635 1 -2.5808 -3.14956 6.41545
1918 1 -3.30265 -2.75279 6.54699
258 1 -3.26426 -3.39564 7.39873
1898 1 -3.47394 -2.50712 7.42642
3175 2 -1.99617 -2.82946 7.22442
3017 2 -0.0240709 -3.15298 6.23526
2122 1 -0.710014 -2.83383 7.43328
891 1 -1.02791 -3.51576 6.81459
2720 1 -6.5162 -1.96787 7.29576
968 1 -6.86501 -1.64962 6.74305
2451 1 -5.73964 -2.33551 7.29829
3052 2 -5.5112 -1.37126 6.95558
1211 1 -5.5546 -2.25038 6.46986
908 1 -4.16568 -1.46009 6.77609
2289 1 -4.33238 -2.16766 7.17614
280 1 -3.01577 -1.69263 7.12383
2880 2 -1.88607 -2.12265 6.86343
2086 1 -1.15711 -2.25864 6.37529
1818 1 -6.36799 -0.41407 6.45679
339 1 -6.96414 -0.775506 6.64144
880 1 -6.97011 -0.198442 7.26096
3390 2 -5.85712 -0.761979 7.26328
2506 1 -4.72688 -0.794806 6.49306
2287 1 -4.42014 -0.154163 7.40102
1239 1 -2.49456 -1.02547 6.80555
3264 2 -3.5418 -0.830573 7.20177
3041 2 -3.63945 -0.500909 6.48445
956 1 -2.74511 -0.0185131 6.41691
995 1 -2.45447 -0.0404535 7.27894
1178 1 -1.53539 -0.467447 6.84695
1124 1 -0.274903 -0.440544 6.95502
3192 2 -1.01763 -1.23485 7.16187
646 1 -0.871939 -0.106878 6.49124
2926 2 -6.84108 0.569616 -7.12584
1057 1 -6.98127 1.18772 -6.32476
3005 2 -6.99936 0.0382726 -6.48001
1008 1 -6.06698 0.521851 -6.27131
2223 1 -5.41421 1.21905 -6.69987
1370 1 -5.65099 0.654969 -7.26288
3158 2 -4.519 0.951505 -7.45702
1931 1 -4.79341 0.107076 -6.89329