LAMMPS data file via write_data, version 19 Mar 2020, timestep = 0

2048 atoms
2 atom types

-5.9200053553618472e+00 5.9200053553618472e+00 xlo xhi
-5.9200053553618472e+00 5.9200053553618472e+00 ylo yhi
-5.9200053553618472e+00 5.9200053553618472e+00 zlo zhi

Masses

1 1
2 1

Atoms # atomic

1849 2 -5.5137501929908490e+00 -4.8023462118959657e+00 -5.3986495253738074e+00 1 1 1
514 1 -5.1625121737764736e+00 -5.6256728968310412e+00 -5.8071975619908720e+00 0 0 1
14 1 -4.3907904323165692e+00 -5.5493175729785165e+00 -5.5357176588572123e+00 0 0 0
29 1 -3.6274967903780837e+00 -5.1635947631908721e+00 -5.3729404158492029e+00 0 0 1
554 1 -4.3317867560871228e+00 -5.7567559869862599e+00 -4.7435130927632354e+00 0 1 -1
3 1 -2.8083772235471618e+00 -4.9056276026327916e+00 -5.2310286930155216e+00 1 0 0
1365 2 -2.4161619664214213e+00 -5.8196518610946697e+00 -5.5633311080093621e+00 -1 0 1
855 1 -1.8415789243472496e+00 -4.6182967189596473e+00 -5.0253275563749940e+00 0 1 1
1151 2 -1.6807577415156754e+00 -5.4178989007596989e+00 -5.4452554849416641e+00 1 0 -1
1291 2 -8.0989825784680214e-01 -5.3127884375950192e+00 -5.2892388098468688e+00 1 1 0
1746 2 1.0897782803367750e-01 -4.7882635032724039e+00 -5.8949654608278061e+00 0 0 1
1029 2 -3.0659680553896784e-02 -5.0911703242607125e+00 -5.0463814468540749e+00 1 0 0
1260 2 8.4906880124340489e-01 -4.8456565375385949e+00 -4.8816903730021073e+00 -1 1 0
959 1 1.1733880474324625e+00 -5.7395521833982297e+00 -5.2534965266328442e+00 0 0 1
673 1 1.9867056782596721e+00 -5.3455755600318451e+00 -5.1704468268492807e+00 0 0 -1
931 1 2.7533442441623466e+00 -5.1319278180912749e+00 -4.9656459954357883e+00 0 0 1
821 1 2.8083975717145391e+00 -4.7952396267266701e+00 -5.7918052066770533e+00 -1 0 0
57 1 3.5534230702141061e+00 -4.8925411433647170e+00 -4.8635584171555335e+00 0 0 0
1677 2 3.9532693408511674e+00 -5.8395005839684497e+00 -5.1479976444751987e+00 0 1 1
1277 2 4.4765733588540817e+00 -5.2130989811523429e+00 -5.8161047850285099e+00 -1 0 0
666 1 4.4063791375914816e+00 -4.6720809159892207e+00 -4.6382310258371335e+00 -1 0 1
1604 2 4.7860297429294105e+00 -5.6230993108657081e+00 -4.9481471042641054e+00 -1 0 0
1931 2 5.4004953204412649e+00 -5.0039142755126207e+00 -5.7042729138470687e+00 -1 1 0
1799 2 5.5516609643442196e+00 -5.1403818334303670e+00 -4.8168280947300701e+00 -1 -1 1
1661 2 -4.7193603420430286e+00 -4.5439589817820325e+00 -5.1959581448885501e+00 0 0 1
19 1 -4.8818100375791200e+00 -3.5821701570795783e+00 -4.6452984073142618e+00 1 0 1
555 1 -5.6245133867734269e+00 -3.7632525860731660e+00 -5.0593009482155153e+00 1 0 0
223 1 -5.8102654392846143e+00 -3.5257560427761701e+00 -5.8318789926393864e+00 1 1 0
373 1 -4.9741545676305279e+00 -3.2958544974306077e+00 -5.6245323585560483e+00 0 0 1
1548 2 -3.9189025340849386e+00 -4.2360876808317869e+00 -4.9797558408692364e+00 0 0 0
1103 2 -3.9873606584765549e+00 -3.9776587381580244e+00 -5.7242217243411533e+00 1 0 1
1046 2 -3.2957764503654845e+00 -3.7138200457836668e+00 -5.4836269735948324e+00 0 1 0
1663 2 -2.3331021442615119e+00 -3.4142330366835858e+00 -5.4618356971036164e+00 0 1 1
1261 2 -3.1556849777655547e+00 -4.0470651028770073e+00 -4.7481002150982592e+00 1 0 0
1402 2 -2.3787354599433117e+00 -3.7370244769900931e+00 -4.6385062850324292e+00 1 1 1
957 1 -2.0241946616181097e+00 -4.3106631606984633e+00 -5.7404702760645092e+00 0 1 1
91 1 -1.1262420136991995e+00 -4.0202042799877624e+00 -5.6286310280871996e+00 0 0 0
765 1 -9.8126398526303316e-01 -4.3649970013216759e+00 -4.8922479957727010e+00 0 0 1
247 1 -2.3385239698948723e-01 -3.9146405826049837e+00 -5.5528607023183305e+00 -1 0 1
902 1 5.8396014986057398e-01 -3.5042059013046005e+00 -5.2355306868476692e+00 -1 0 1
467 1 -1.9659716042665476e-01 -4.1830674295429748e+00 -4.6939858763089486e+00 0 0 1
2029 2 8.5775749572021276e-01 -4.4611314614885194e+00 -5.7611843065225861e+00 -1 0 1
1694 2 1.6270243207184807e+00 -4.2082233821221848e+00 -5.5194302638090802e+00 0 1 0
122 1 1.3799315145059241e+00 -3.3372739777032532e+00 -4.9495333808142528e+00 0 0 0
1705 2 1.7766589973425644e+00 -4.4613805990355226e+00 -4.6396130929315467e+00 -1 0 1
1129 2 3.1657083034043625e+00 -3.6118710972851367e+00 -5.1814853521778650e+00 0 1 0
1995 2 2.4454504006430584e+00 -3.9420544387799197e+00 -5.3925812433039102e+00 0 1 0
434 1 3.5606615851409691e+00 -4.4614461682877655e+00 -5.7683053667174802e+00 0 0 0
723 1 4.3639290081807909e+00 -4.3254778878678097e+00 -5.4232146307427316e+00 0 0 1
1929 2 4.0562275371439052e+00 -3.4715336060160569e+00 -4.9986416895558392e+00 0 1 0
429 1 5.2366802969086956e+00 -4.0330066739936372e+00 -5.1482565542356884e+00 0 0 1
1588 2 -5.2575983251301643e+00 -2.3967875056161434e+00 -5.2190612939704000e+00 0 0 1
1341 2 -4.5306133749173254e+00 -2.1246331041993476e+00 -4.9978149755132577e+00 1 1 1
878 1 -4.1954762363498066e+00 -3.0410887464382883e+00 -5.3536432427859868e+00 1 0 0
196 1 -3.4098961538656556e+00 -2.6626958618712711e+00 -5.2621500844800675e+00 1 1 0
391 1 -2.6377295645636702e+00 -2.3213513946572397e+00 -5.6945999324626069e+00 0 0 0
353 1 -2.6467132805609643e+00 -2.6798768840369553e+00 -4.7879207269353099e+00 0 0 0
1711 2 -1.5736054225958371e+00 -3.2394894943255150e+00 -5.1481566662322562e+00 0 1 0
151 1 -1.8020651983943852e+00 -2.3243473272706012e+00 -4.7279473630474307e+00 1 0 1
421 1 -9.9089315299977265e-01 -2.0501776378776722e+00 -4.6527132548982220e+00 -1 0 1
1763 2 -7.0230657507208338e-01 -3.0493879376258004e+00 -5.0252952081331603e+00 0 1 1
402 1 -1.7935866128057061e+00 -2.0265908822056251e+00 -5.5807923683983010e+00 0 0 0
1820 2 2.6416766326734553e-01 -2.2843243016698542e+00 -5.6400097315394948e+00 0 0 1
1255 2 8.0476504575279328e-02 -2.7778243185423364e+00 -4.8499262881619156e+00 0 0 1
1231 2 -6.2354059371710058e-01 -2.5367206012518873e+00 -5.6643665132815793e+00 0 0 1
924 1 1.1768603798873292e+00 -2.9864392932930168e+00 -5.8012989263115209e+00 0 0 2
1909 2 8.3833885071746117e-01 -2.3100769606691336e+00 -4.8616684481345160e+00 0 0 1
202 1 2.0767186287991635e+00 -2.8325797556381995e+00 -5.7577699652880705e+00 0 1 -1
975 1 2.8950202378499297e+00 -2.5365484329949726e+00 -5.5897524155264664e+00 0 0 0
694 1 2.2876241932450467e+00 -3.0620842643074337e+00 -4.8436925584805390e+00 0 1 -1
904 1 3.2686868057561158e+00 -2.5852891072042232e+00 -4.7179101258888583e+00 -1 -1 1
1722 2 4.1077069154063084e+00 -3.1353117665285315e+00 -5.8969572634127738e+00 0 1 1
939 1 3.6074363029742811e+00 -2.2406373411635307e+00 -5.4447722439032482e+00 -1 0 1
406 1 4.4193805001989270e+00 -2.0791793595032715e+00 -5.0248262331914351e+00 -1 0 0
2032 2 4.8370450199255695e+00 -3.2414465685048670e+00 -4.6349630953191259e+00 0 1 0
1070 2 5.7590977141105304e+00 -2.6505397423219028e+00 -5.3954762159278227e+00 0 0 1
1475 2 4.9212681436115373e+00 -2.8371755875566125e+00 -5.4496341525751317e+00 0 0 1
543 1 -5.7488439166756748e+00 -1.5142390065846678e+00 -4.7806849325907068e+00 1 0 1
730 1 -4.8566672730000029e+00 -9.3850016058209551e-01 -5.3845980174326691e+00 0 0 0
972 1 -5.6564628907337067e+00 -1.3202698736768879e+00 -5.5241767574234659e+00 1 0 1
1682 2 -3.7918375688963510e+00 -1.9034002148380411e+00 -4.6930415884203143e+00 1 0 1
1904 2 -4.4616621838811126e+00 -1.8391924852015098e+00 -5.7866552886719846e+00 1 0 1
1635 2 -3.6742071074257807e+00 -1.5945610972946849e+00 -5.5204189704469417e+00 1 1 1
1345 2 -2.7852698365512665e+00 -1.3576126225025336e+00 -5.4820339972873704e+00 0 1 1
1572 2 -2.1169032642981174e+00 -1.0727697484029548e+00 -5.2506083314987126e+00 1 0 0
1086 2 -2.9707957968270158e+00 -1.6414608171295662e+00 -4.6485493126502790e+00 1 0 1
1069 2 -1.3682228400925398e+00 -8.7133754785092066e-01 -5.0045718616905175e+00 0 1 1
11 1 -1.0940801110841427e+00 -1.6653053639312834e+00 -5.3932264027439674e+00 1 1 0
595 1 -2.1737063006503465e-01 -1.4745127841949968e+00 -5.1889643049511811e+00 0 0 0
8 1 5.9152760543197758e-01 -1.3307689156414888e+00 -5.1496113757695685e+00 0 1 0
1525 2 1.5118832454813171e+00 -1.9283910521265799e+00 -5.4093420813598323e+00 -1 1 1
581 1 1.2499797336336362e+00 -1.0295497436338295e+00 -4.8346801630969276e+00 0 0 0
560 1 1.4329461299998529e+00 -7.3792072043255175e-01 -5.6752168330623887e+00 1 0 0
2048 2 2.2304658752640476e+00 -1.8931301123755055e+00 -5.1572726539159763e+00 0 0 0
1363 2 2.9483671367420135e+00 -1.4388528211681111e+00 -4.8477149404668003e+00 -1 1 -1
640 1 2.1375927596146314e+00 -7.9080136602400497e-01 -4.7041541545442538e+00 1 0 1
1202 2 2.5630158241053609e+00 -1.4182509720839382e+00 -5.8299064576752215e+00 -1 0 0
1167 2 3.8910293057988818e+00 -1.2709521680615659e+00 -4.7135326227757970e+00 0 0 1
1224 2 3.4198687232528764e+00 -1.1062692673298233e+00 -5.6310470102281327e+00 0 0 1
2001 2 4.2535870673344247e+00 -7.9427098123971618e-01 -5.5164269577785809e+00 -1 0 1
771 1 5.2770441887309110e+00 -1.7609144724969781e+00 -4.9207991399780280e+00 0 -1 1
176 1 5.3391008450733297e+00 -1.5064833928508365e+00 -5.7951371584941773e+00 0 0 2
1623 2 4.7991277571063113e+00 -9.0449171831838537e-01 -4.6608928104663008e+00 0 0 0
1615 2 -5.2499013688516341e+00 -3.7768810741344083e-02 -5.1725595545392897e+00 0 0 1
55 1 -4.0343029798743908e+00 -5.2364422186597803e-01 -5.2965253600717235e+00 1 0 0
1343 2 -4.3523186884282117e+00 4.5591861509370180e-01 -5.5308204278425483e+00 -1 -1 1
1256 2 -4.5769801664825245e+00 1.2782061206364226e-01 -4.7973945432232465e+00 1 0 1
2028 2 -3.6614343269947525e+00 4.2101128047848402e-01 -4.6239256273534597e+00 0 0 1
374 1 -3.2354011799594216e+00 -5.9143395487292594e-01 -4.9293999586892667e+00 1 0 1
701 1 -2.4953584481211002e+00 -2.8069111153885906e-01 -4.7665466553707674e+00 -1 0 0
749 1 -2.3579854900676867e+00 7.0566723697691458e-02 -5.5171440381149717e+00 1 1 0
848 1 -3.1744114225987996e+00 -8.3531874701810338e-02 -5.7361489071840239e+00 -1 0 1
704 1 -1.6158511989874258e+00 1.0011752458435463e-01 -4.6541531158775795e+00 1 0 0
37 1 -1.6337751786848900e+00 4.4062614209320472e-01 -5.4321423542825498e+00 1 0 0
1569 2 -1.3401929880912729e+00 -5.4889740081405769e-01 -5.7918642677584984e+00 0 0 0
789 1 -8.0238004361449278e-01 6.3749246092793133e-01 -5.1682097010735708e+00 0 0 1
1296 2 -5.6381286464940317e-01 -5.4999626623757081e-01 -4.7824122594485594e+00 0 0 1
1478 2 2.5488337098763658e-01 -3.4563076952324678e-01 -4.6842108972086329e+00 0 0 0
1573 2 2.8475201106201808e-01 -5.9431378736064744e-02 -5.5159239179260542e+00 0 -1 0
1537 2 -5.8716086699120318e-01 -2.1267493813672189e-01 -5.6264401463518512e+00 0 -1 1
1852 2 1.0900752999182277e+00 1.7370217407993760e-01 -5.2847973648939863e+00 0 0 1
1975 2 1.8658982821298880e+00 4.8682234257710100e-01 -5.2205868926175079e+00 0 0 1
299 1 2.2294366466868878e+00 -4.4465347872101812e-01 -5.4249850756903086e+00 0 0 0
866 1 3.0078213555016751e+00 -2.6189279013801325e-01 -5.2786108559101148e+00 -1 0 0
818 1 3.7733136073091957e+00 3.5116511895808777e-02 -5.0238176269310122e+00 0 0 0
831 1 3.8627069800689275e+00 4.1888524463397481e-01 -5.8147936638924804e+00 -1 0 0
1111 2 5.1230055201866991e+00 -5.6866809451080691e-01 -5.4061606276546836e+00 -1 -1 1
915 1 4.6053455165125685e+00 2.5445393534037208e-01 -4.9257370496512056e+00 0 0 0
872 1 5.4181492948093810e+00 5.2705988896702305e-01 -4.8873352086374782e+00 1 0 0
1634 2 5.8331098248168791e+00 -3.1210994255796365e-01 -5.2289034700655153e+00 0 0 -1
420 1 -5.5209620498958145e+00 1.1697863016825156e+00 -5.5144026895531830e+00 1 0 0
656 1 -4.7395254092483414e+00 1.4612815680721845e+00 -5.2773476364345129e+00 1 0 0
1396 2 -5.7800049321484046e+00 1.9560195907968669e+00 -5.0632883878131443e+00 0 -1 0
338 1 -5.7359704249328134e+00 7.8845241562808610e-01 -4.6437291742089029e+00 1 0 0
1443 2 -3.6441731293435700e+00 8.5885813967084257e-01 -5.5034018336042729e+00 -1 0 0
980 1 -3.8697576540581542e+00 1.6144496276702975e+00 -4.9500418511630340e+00 1 -1 1
491 1 -3.8661212990329714e+00 1.9539710006267441e+00 -5.8362040581110453e+00 0 0 0
1050 2 -2.7463785298787506e+00 1.1028036211098584e+00 -5.2589427455709430e+00 0 0 0
903 1 -3.0330763906714093e+00 1.9541937084127516e+00 -4.9186427682773308e+00 0 -1 1
1054 2 -1.9034482375885799e+00 1.3326887383628216e+00 -5.0818600380762984e+00 0 0 1
1364 2 -1.0633605605141350e+00 1.4836084682214103e+00 -4.8906712406463058e+00 0 0 1
1386 2 -1.0936605397939090e+00 1.8403027477183072e+00 -5.7041048174955415e+00 1 0 0
1576 2 -1.8468574793746422e+00 1.5466953854695680e+00 -5.8412404376468059e+00 0 0 1
625 1 2.5781096838482398e-02 9.0688103057942282e-01 -5.0826994612186374e+00 0 -1 0
895 1 7.7893407494247491e-01 1.1084121882316600e+00 -4.7087045279844455e+00 0 -1 0
254 1 7.8803913281039861e-01 1.4103447241251734e+00 -5.5850154058534338e+00 1 0 1
63 1 1.5666706822857046e+00 1.6928079533291873e+00 -5.5959149329576343e+00 -1 -1 1
760 1 1.6015381055060294e+00 1.3764731113614301e+00 -4.7293502165273482e+00 0 -1 0
1910 2 2.6118291578201491e+00 7.5828473134832830e-01 -4.9468957435950864e+00 1 -1 0
1180 2 2.7242053278209672e+00 1.1915152956431818e+00 -5.7726536517312015e+00 1 -1 1
621 1 2.4495218440565241e+00 1.7042217813676794e+00 -4.6221272413346597e+00 0 -1 0
1412 2 3.4176110749118989e+00 9.6862563077174002e-01 -4.6641700074392869e+00 -1 -1 1
1226 2 4.3728195252724289e+00 1.5541806925180266e+00 -5.4691236596960104e+00 0 0 0
1470 2 3.5002028559668910e+00 1.2714499512578792e+00 -5.4696929890902410e+00 0 1 0
1172 2 4.2640878079313138e+00 1.2302783389285237e+00 -4.6138121048087637e+00 0 0 1
960 1 4.7799453328899242e+00 6.6450491392444100e-01 -5.6286175790046844e+00 -1 0 0
319 1 5.5439004556172931e+00 9.2834325120061401e-01 -5.7157312999251753e+00 0 0 0
1729 2 5.2000468256043115e+00 1.7545557836375725e+00 -5.1380903454086768e+00 -1 0 0
1377 2 -4.9713118523961715e+00 2.3311578767541485e+00 -4.7639239678401912e+00 1 1 0
1810 2 -4.8519634846547390e+00 2.5668756476021057e+00 -5.5786404506668950e+00 1 0 0
1403 2 -5.6705838707266105e+00 2.3817686179418400e+00 -5.7325969711327129e+00 1 -1 0
1716 2 -4.0182667972279091e+00 2.8539904750716394e+00 -5.3855835138056580e+00 1 0 0
1482 2 -3.3529523419189369e+00 3.1880170865625042e+00 -5.1694740695560277e+00 0 -1 0
1485 2 -4.1728883081834445e+00 2.4968751454182891e+00 -4.6204689782552562e+00 0 0 1
719 1 -2.2258729003208293e+00 2.2199343291876685e+00 -4.7200662836106444e+00 0 0 1
820 1 -3.0457212750259286e+00 2.2310654589857242e+00 -5.7398767589339466e+00 0 0 0
1015 1 -2.2765282632796908e+00 2.5175247101197504e+00 -5.4543766230885815e+00 0 -1 0
494 1 -1.3948659116851783e+00 2.6785895091148957e+00 -5.1646700711261753e+00 -2 0 1
301 1 -6.3282764235268196e-01 2.9459257204506288e+00 -4.9875407271332195e+00 0 1 0
1063 2 -3.1151723287973265e-01 2.0601112035159090e+00 -5.3880224526979985e+00 0 0 1
56 1 1.6369214352325212e-01 3.2166383448781657e+00 -4.9473713377976765e+00 0 -2 1
1639 2 4.4784028124777198e-01 2.3040495587925216e+00 -5.1559721976150570e+00 -1 0 0
1653 2 1.2643771226502984e+00 2.5062606435644819e+00 -5.1096306167978405e+00 0 0 1
1298 2 1.2632472832762938e+00 2.9542662691709660e+00 -5.8168191743993525e+00 -1 0 0
380 1 2.3019076488291619e+00 2.0206321298303038e+00 -5.4252085265295085e+00 0 0 0
1408 2 2.1390172520052824e+00 3.1672259269063536e+00 -5.7374109614701956e+00 0 0 0
1628 2 2.0102640891085066e+00 2.7880841752956540e+00 -4.8162644301748339e+00 0 0 1
396 1 3.2131214537285642e+00 2.2487825701103388e+00 -5.2599906789262514e+00 0 0 -1
1979 2 2.8506412359994870e+00 3.1462383418319666e+00 -4.8859263816776517e+00 -1 0 1
204 1 4.0396310095737524e+00 2.4268161286895635e+00 -5.0983933043265388e+00 0 0 0
800 1 4.1897028588297358e+00 2.7668786118136142e+00 -5.8877174751438712e+00 0 0 1
445 1 4.9906877061942323e+00 2.8856640814973575e+00 -5.3814930103181489e+00 -1 -1 1
178 1 5.7794390479768429e+00 3.1959640406802494e+00 -5.4550399668925200e+00 -1 0 0
984 1 4.6787930087611818e+00 2.7276896314166867e+00 -4.6216465613402535e+00 0 0 0
676 1 5.6256589940110677e+00 2.8993977770853041e+00 -4.6849294466018510e+00 0 0 0
188 1 -5.2688167175363469e+00 3.5131967878020047e+00 -5.1845637593976823e+00 -1 -1 1
1618 2 -5.6933886105680349e+00 4.4528389965679454e+00 -4.7106840135706767e+00 1 0 1
83 1 -4.3958879459468641e+00 4.1443762259277301e+00 -5.7217036212737957e+00 0 -1 2
989 1 -4.5178654736962773e+00 3.7170122210697558e+00 -5.0038436732913212e+00 0 0 1
607 1 -3.7419627206111770e+00 4.0295007458882877e+00 -4.6775408365586868e+00 0 0 1
45 1 -3.6180731045021379e+00 4.3702575285547978e+00 -5.4920633014860467e+00 1 1 1
1934 2 -2.5403340764332403e+00 3.6329488997155250e+00 -5.7490175365513467e+00 0 0 1
1620 2 -2.5703105372258199e+00 3.3535509949267697e+00 -4.9514498391197623e+00 0 -1 -1
428 1 -2.8802691066242008e+00 4.5692293898385712e+00 -5.5199317464589308e+00 0 0 0
383 1 -8.4505312283485079e-01 3.3146755253251436e+00 -5.9170755018083598e+00 0 -1 0
1142 2 -1.7919324032766246e+00 3.9434708082948449e+00 -5.6717218186801519e+00 0 0 0
1877 2 -1.8077142147850722e+00 3.6799779419889349e+00 -4.8958430830486250e+00 1 -1 1
1869 2 -9.1463391456849763e-01 4.1937877941414845e+00 -5.4453484875827272e+00 1 -1 0
1824 2 -9.8833197903184455e-01 3.8327111020399860e+00 -4.6626286377248443e+00 0 -1 1
1336 2 -8.8434087823486607e-02 4.3935758971479499e+00 -5.2058990667585272e+00 0 0 -1
710 1 1.0954717207054543e-03 3.5603205101862470e+00 -5.6565287854620454e+00 0 0 0
815 1 1.7412398276158330e+00 4.0274992331331871e+00 -5.4181028132740865e+00 0 -1 0
415 1 8.4727983689399888e-01 3.8420168639802723e+00 -5.6035683265005201e+00 -1 -1 1
310 1 8.9701346094082801e-01 3.4234813439112743e+00 -4.6678043330608041e+00 0 0 1
1130 2 2.9171631080947327e+00 3.5844669538961904e+00 -5.7103116424045703e+00 -1 0 0
716 1 2.4762590443681871e+00 4.3942977408309494e+00 -5.0825821874122656e+00 0 -1 1
1274 2 3.7326446420498653e+00 3.6460635309729659e+00 -5.2777970266289858e+00 0 0 0
1769 2 4.5509522761213459e+00 3.7485977180402985e+00 -5.0720037460122018e+00 -1 0 1
256 1 3.3838227912205250e+00 4.4739634070163143e+00 -4.9475578084950431e+00 -1 -1 0
1342 2 5.3928447280847012e+00 4.0440271715047720e+00 -4.9038636285615045e+00 0 0 0
1933 2 5.4266321430791651e+00 4.4029446010319431e+00 -5.7865783564325755e+00 0 1 0
1073 2 4.6162626571618626e+00 4.1835547017264689e+00 -5.8497664192105754e+00 0 -1 1
412 1 -5.1745310927181478e+00 5.8086742682003019e+00 -5.0557091493936506e+00 0 -1 0
1670 2 -5.6850609822305014e+00 4.7991265035361357e+00 -5.5065769345464579e+00 1 0 1
1640 2 -4.8796946388441977e+00 4.9289076826049909e+00 -5.3841701149305514e+00 0 0 0
1349 2 -4.0530351574431736e+00 5.2102178276266331e+00 -5.1868003684908111e+00 1 -1 1
1757 2 -3.1661667181833506e+00 5.5502636931350624e+00 -5.0877613293302835e+00 0 -1 1
82 1 -2.0612400523386607e+00 4.8349254328440177e+00 -5.2614622188865958e+00 0 -1 1
1413 2 -2.3412753202325129e+00 5.7193370707944711e+00 -4.7094937210519339e+00 1 0 1
632 1 -1.3092561952778601e+00 5.5606938268084525e+00 -5.9018705619903660e+00 0 -1 0
729 1 -1.2844680181251560e+00 5.1339455635556055e+00 -5.1283030284600200e+00 1 -1 0
528 1 3.3514572368164863e-01 5.9187450598784705e+00 -5.4281661117577009e+00 0 0 1
123 1 -3.8882367100861259e-01 5.2675315476949978e+00 -4.7868459866728594e+00 0 -1 0
135 1 -4.7047427720845469e-01 5.6078336423253718e+00 -5.5367560724141338e+00 0 0 1
1033 2 5.9665261141533854e-01 4.9853464484919501e+00 -5.8098333574076584e+00 1 0 1
1039 2 7.0622984625743612e-01 4.7315324642819840e+00 -4.9658352654650946e+00 -1 -1 0
1193 2 1.5076573429832658e+00 5.0709992997363029e+00 -4.9195877606867189e+00 0 0 0
1032 2 1.4829503844643179e+00 5.3352048513451402e+00 -5.7233432460043332e+00 0 -1 1
1748 2 2.2788112776570300e+00 5.6034657982024187e+00 -5.4912445814135253e+00 -1 -1 1
1437 2 3.1404173277096854e+00 5.7492890338330787e+00 -5.2637122726829615e+00 0 0 1
1823 2 2.2708649367426110e+00 5.2384139281883995e+00 -4.6259097444355692e+00 -1 0 0
486 1 4.2543677819044960e+00 5.1017317051188131e+00 -5.5440298829784398e+00 -1 0 1
653 1 3.4485169793256647e+00 4.9163207849327479e+00 -5.6079351348519699e+00 0 0 1
48 1 4.2820307819017147e+00 4.6612534823741436e+00 -4.6884578360166023e+00 -1 0 2
407 1 5.7115712234329807e+00 5.7645356552129678e+00 -5.0945454251648972e+00 -1 0 0
318 1 5.0234859084176078e+00 5.2592420620578517e+00 -5.3076687038262005e+00 -1 0 0
1272 2 -5.5253120288866340e+00 -5.1152003612473438e+00 -4.5679269728158118e+00 1 0 0
1418 2 -5.5539638132356819e+00 -5.3253645071183060e+00 -3.7674501583413864e+00 2 0 1
1633 2 -4.7526816865775867e+00 -4.8715762525589152e+00 -4.3746513209064384e+00 1 0 0
1192 2 -4.6688692279472299e+00 -5.1503435519308196e+00 -3.4895003888655660e+00 0 1 0
473 1 -3.5877015557201437e+00 -5.4108381442116080e+00 -4.4886883641236537e+00 0 1 0
346 1 -3.4926794618487498e+00 -5.8127915517018938e+00 -3.7330264558651787e+00 1 1 0
255 1 -2.7014340286638703e+00 -5.6025631744742901e+00 -3.5309432209729734e+00 1 1 1
1008 1 -2.7383544027259434e+00 -5.2508393836397378e+00 -4.4005975065874035e+00 1 0 0
1526 2 -1.5271652985525765e+00 -5.8490075640931076e+00 -4.6025725114957678e+00 0 1 0
508 1 -1.9383478420112201e+00 -5.3680652882601896e+00 -3.3728450601828412e+00 0 1 0
333 1 -1.8930130733382109e+00 -5.0100227649258748e+00 -4.1582572214728639e+00 0 0 0
1571 2 -7.4927617723383300e-01 -5.6191311893919673e+00 -4.4522803771621149e+00 0 1 0
274 1 -1.1245327299909489e+00 -4.7318522876290698e+00 -4.1036969672015751e+00 -1 0 0
1592 2 -9.1804677997189632e-01 -5.9050313558463978e+00 -3.6410169462720652e+00 0 1 0
1486 2 5.2606173668080736e-02 -5.3439465282324976e+00 -4.2058485959931931e+00 0 0 0
1429 2 -1.0725581085810010e-01 -5.7958104898962564e+00 -3.4648391276607398e+00 0 1 0
1790 2 1.6486806917890640e+00 -4.7887802579948566e+00 -3.8472292003556166e+00 0 -1 0
1737 2 8.0387841042218255e-01 -4.9948186260207672e+00 -4.0741335176555360e+00 0 1 -1
64 1 1.9182013769543902e+00 -5.6797965986737742e+00 -4.2743917550557953e+00 0 1 0
1742 2 8.0167719282989847e-01 -5.4213228059639347e+00 -3.3323340667128587e+00 -1 0 0
575 1 1.1124191982206479e+00 -5.8744549020162706e+00 -4.4134099868836376e+00 0 1 0
1013 1 2.7803418449919617e+00 -5.4514901742135145e+00 -4.1354873694106189e+00 1 1 0
180 1 2.7889491054422093e+00 -5.8975597643093387e+00 -3.3473227989380478e+00 0 1 0
955 1 3.6244167271605905e+00 -5.2008552049330303e+00 -4.0304869046386038e+00 0 0 -1
496 1 4.3901221673878057e+00 -4.9155003597844233e+00 -3.8642141571494095e+00 0 1 0
1358 2 5.5029033720807439e+00 -5.5209152986437173e+00 -4.0905624578360946e+00 0 0 1
847 1 5.3197454706962626e+00 -4.7078194323887317e+00 -3.4758581581426693e+00 0 1 0
75 1 -5.0443131850009593e+00 -3.9548598108081601e+00 -3.9168273603347941e+00 1 0 1
817 1 -5.7307299782477923e+00 -4.0727974713461137e+00 -4.1695470811811948e+00 1 0 1
339 1 -5.7389659363412617e+00 -4.4400840164905402e+00 -3.3616163146045848e+00 1 0 1
1477 2 -3.9561154396308789e+00 -4.5905469500083980e+00 -4.0199503420080864e+00 1 1 0
273 1 -4.0826436413317237e+00 -3.3604638979643613e+00 -4.5826507098402756e+00 0 0 1
483 1 -4.1872165390159113e+00 -3.7006647082628374e+00 -3.7114572794751992e+00 0 0 1
218 1 -3.4747379815259705e+00 -3.3889983867418603e+00 -3.5473086318633387e+00 0 1 0
1807 2 -3.1368551538833431e+00 -4.3954600668287771e+00 -3.8942912877576292e+00 0 1 0
1106 2 -2.2895847944275802e+00 -4.1435400497395491e+00 -3.8700894967055883e+00 0 1 0
2009 2 -1.4996606243145942e+00 -3.6804368583832821e+00 -4.3512397830411658e+00 0 0 1
1531 2 -1.4612516170616630e+00 -3.8605531699971469e+00 -3.5246567152946242e+00 0 0 1
1280 2 -6.6211412605248121e-01 -3.6737381098852788e+00 -3.3430198813329004e+00 0 0 0
1370 2 -6.9438566698331439e-01 -3.3057714854744473e+00 -4.1951684389906534e+00 0 0 -1
328 1 -3.6284123006028413e-01 -4.4780753306671439e+00 -3.8375672570499653e+00 -1 1 0
107 1 4.7432180825683101e-01 -4.1615386002400481e+00 -3.7159923549990310e+00 0 1 0
403 1 4.9063655786963967e-01 -3.9153779480817419e+00 -4.5468881579925515e+00 1 0 1
1645 2 1.1297387358217392e-01 -3.3523894416126754e+00 -3.2970208206109017e+00 0 0 1
782 1 1.3025209652508929e+00 -3.6358469796026323e+00 -4.2373735540934048e+00 0 0 1
321 1 1.2931396672671314e+00 -3.9089188015119194e+00 -3.4543279105437579e+00 0 1 1
1836 2 2.6763923815328505e+00 -4.1589881762619996e+00 -4.4901507868098660e+00 0 1 1
1198 2 2.4328816382616738e+00 -4.5361706565552007e+00 -3.6603655707134033e+00 0 0 0
547 1 2.1245727375970196e+00 -3.3432627154082568e+00 -4.1345814984273872e+00 0 1 0
471 1 2.1575526682073400e+00 -3.6154689396403046e+00 -3.3003910743969702e+00 -1 0 0
999 1 2.9728147062692658e+00 -3.4037462937808045e+00 -3.3072062949760999e+00 -1 0 1
2010 2 3.4305910109187741e+00 -3.8669221388076016e+00 -4.3768898847639370e+00 0 1 0
1655 2 4.2666026568565973e+00 -3.7635123657290781e+00 -3.9999140355677794e+00 -1 0 2
1521 2 3.3546379100577903e+00 -4.3129705162163470e+00 -3.4495337556571672e+00 -1 0 2
131 1 5.3539622354280274e+00 -4.3550406622645959e+00 -4.2497599550788845e+00 0 0 -1
2002 2 5.1574804226248707e+00 -3.4137390636829190e+00 -3.7615761199695448e+00 -1 0 1
1871 2 -5.3660642829506049e+00 -2.7169801010203063e+00 -4.4515732558531234e+00 1 1 1
1201 2 -5.7654935216115275e+00 -3.0702263840587518e+00 -3.7390553518825018e+00 0 1 0
1465 2 -4.6160101988629201e+00 -2.4167449395497029e+00 -4.1849666368264504e+00 1 0 0
1911 2 -4.9772901202776749e+00 -2.9244420045162065e+00 -3.4820898972160852e+00 1 0 1
991 1 -3.4245624554481497e+00 -3.1452904306432399e+00 -4.3600349091315094e+00 0 0 0
1271 2 -3.7862100891827435e+00 -2.2886511903057776e+00 -3.9359761280368342e+00 1 0 0
1808 2 -2.9646215707219157e+00 -1.9842732987003253e+00 -3.8840313823292720e+00 0 1 -1
599 1 -2.6645218668274797e+00 -2.9804541461766236e+00 -4.0078145112113379e+00 0 0 0
236 1 -1.9177075129991952e+00 -2.6873947948784642e+00 -3.9817309698227250e+00 1 0 0
313 1 -1.0848252809947052e+00 -2.4187746058154618e+00 -3.8975153160341232e+00 0 0 1
1581 2 1.8377680469728030e-01 -3.0130180923665941e+00 -3.9949544709268276e+00 1 -1 1
597 1 -3.4657743168628574e-01 -2.1435839098009435e+00 -3.5163285575266490e+00 -1 0 1
1555 2 1.6370268949039390e+00 -2.1736701028019709e+00 -4.5245688324802424e+00 0 1 0
1083 2 9.7345459393197231e-01 -2.7254015897730675e+00 -3.9405806776762144e+00 -1 0 0
1401 2 1.6734244368813158e+00 -2.4233181165408682e+00 -3.7248265824114419e+00 0 0 1
1259 2 2.6364073106396058e+00 -2.2930106863802115e+00 -3.3493539303776698e+00 0 0 1
277 1 2.8938592680385620e+00 -3.0688836450244370e+00 -4.0440378613964594e+00 -1 0 1
1190 2 2.4070671441317684e+00 -2.0057328010184192e+00 -4.2425629690148590e+00 1 0 1
25 1 4.0066657057320123e+00 -2.4772741892672978e+00 -4.4430100936307255e+00 -1 0 1
914 1 3.7490632984955523e+00 -2.8918635553339738e+00 -3.7454468793635525e+00 -1 0 0
602 1 4.5410566610290788e+00 -2.6553406684980532e+00 -3.3901745137622514e+00 0 1 0
1937 2 5.6812383504844730e+00 -2.9707493855766973e+00 -4.5407696553930679e+00 0 0 0
205 1 5.7512666980491636e+00 -2.0259768181014834e+00 -4.1354871081796425e+00 0 1 0
214 1 4.8676727095044727e+00 -2.2091485338125212e+00 -4.1645739561509156e+00 -1 0 1
740 1 5.4491813915770360e+00 -2.3729810537698848e+00 -3.3679628588934620e+00 0 0 0
717 1 -4.9127969741611484e+00 -1.2759148851557285e+00 -4.5911968221007706e+00 -1 -1 0
592 1 -5.1929839071032395e+00 -1.6960422974658069e+00 -3.8214032136454819e+00 1 0 1
1498 2 -5.3917811825117310e+00 -6.7726396282133905e-01 -3.4701923595490745e+00 0 0 1
58 1 -4.1474358726903251e+00 -8.6910640217662927e-01 -4.5488579780486615e+00 0 -1 1
734 1 -4.2804913727839269e+00 -1.3505522382168103e+00 -3.7259294858060357e+00 1 0 0
505 1 -3.5055404159882295e+00 -8.5186442967061193e-01 -4.0788427247815786e+00 0 0 -1
917 1 -3.4108145545405302e+00 -1.2540000879263395e+00 -3.3985384082209094e+00 -1 0 0
1781 2 -2.2081637504642333e+00 -1.8392319801268799e+00 -3.5983561592152729e+00 0 0 1
1097 2 -2.2210039155689407e+00 -1.3250910794387893e+00 -4.3959074760540950e+00 1 -1 1
1801 2 -1.4494406229965140e+00 -1.1639120712135043e+00 -4.2250618724474931e+00 1 0 0
2046 2 -1.4470883834979551e+00 -1.4879003944525433e+00 -3.3846634208957034e+00 0 0 1
1644 2 -6.1476523067373634e-01 -9.1078280945396983e-01 -4.0207288861488237e+00 0 0 1
674 1 -2.5029714212287590e-01 -1.8260449677121215e+00 -4.3165442579891167e+00 0 0 1
1819 2 2.4395760512261688e-01 -6.8198322371476117e-01 -3.8230592517282789e+00 1 0 -1
35 1 4.9671993625597466e-01 -1.4695674637325418e+00 -4.2527655483967148e+00 0 0 0
367 1 4.4240321936535754e-01 -1.9201046807922384e+00 -3.4010840491153327e+00 0 0 0
768 1 1.4821161915098537e+00 -1.3566883723912255e+00 -4.0111508769771209e+00 0 0 0
106 1 2.1905004078921531e+00 -1.0090388021105143e+00 -3.8594266814034368e+00 0 0 0
199 1 2.9717552359029371e+00 -8.1015543923539468e-01 -3.5339099449860862e+00 0 0 -1
1030 2 3.1206932301993069e+00 -1.6248773665061664e+00 -4.0265983020462279e+00 -1 -1 2
2036 2 4.1209236026865819e+00 -1.5801279174515068e+00 -3.8626147655107270e+00 0 0 0
116 1 3.8362304184633880e+00 -7.2597551190795606e-01 -3.4782530827214293e+00 0 0 0
1163 2 5.6035241025488931e+00 -6.8728992126001032e-01 -4.3608458389284168e+00 0 -1 1
2035 2 4.8928060007337750e+00 -1.2038306938203238e+00 -3.7684770667351004e+00 -1 0 0
1436 2 5.6596910260305622e+00 -1.0241444240057520e+00 -3.6005530514173469e+00 -1 0 -1
1212 2 -5.4043490068719633e+00 -3.6325916292173854e-01 -4.2423730271831346e+00 0 0 1
697 1 -5.6881691941380259e+00 4.8682383327232870e-01 -3.8537378172888652e+00 1 0 0
1830 2 -4.6304506413820761e+00 -1.0050088155264625e-01 -4.0603696038680539e+00 0 0 1
1184 2 -3.8169767762426021e+00 9.0628623655466534e-02 -3.8360113028202627e+00 -1 0 1
767 1 -2.4993951741081566e+00 -4.8409366196823367e-01 -3.8590652532815564e+00 -1 0 0
1736 2 -2.9319839849603908e+00 3.8652281808253530e-01 -3.7069287955596315e+00 0 0 1
2022 2 -2.1095947319123143e+00 5.4957657513931579e-01 -3.5162219903447962e+00 0 0 0
799 1 -8.4346472805348416e-01 2.4050001414754441e-01 -4.3236081935871660e+00 1 0 1
419 1 -1.5922725310787236e+00 -2.7767201853165524e-01 -3.7881169097146903e+00 0 0 1
59 1 -8.2608015443435967e-01 -9.6184123029086521e-02 -3.5247958945191935e+00 0 -1 1
499 1 -3.8877472506140265e-03 6.3015260995415368e-01 -4.2396115995404022e+00 -1 0 1