ITEM: TIMESTEP
40200
ITEM: NUMBER OF ATOMS
2048
ITEM: BOX BOUNDS pp pp pp
-5.9364192563239140e+00 5.9364192563239140e+00
-5.9364192563239140e+00 5.9364192563239140e+00
-5.9364192563239140e+00 5.9364192563239140e+00
ITEM: ATOMS id type x y z 
1103 2 -5.48807 -4.9579 -5.25538 
274 1 -4.6972 -5.81826 -5.15462 
3 1 -3.42132 -4.81741 5.79886 
5 1 -3.42528 -5.13392 -5.30213 
346 1 -4.10411 -5.23717 -5.75721 
805 1 -3.9363 -5.61145 -4.59461 
333 1 -2.75572 -4.60294 -5.43293 
91 1 -2.17741 -4.83884 -4.78278 
1571 2 -0.918221 -5.4861 -5.0643 
765 1 -1.26037 -4.45961 -4.84239 
1801 2 -1.81583 -5.70048 -5.19609 
1301 2 -1.25679 -5.21373 -5.78744 
1563 2 0.435419 -4.75119 -5.65993 
1746 2 -0.280896 -5.14776 -5.66014 
87 1 0.583916 5.93736 -5.79783 
707 1 2.14336 -5.15607 -5.61287 
959 1 0.997804 -5.95838 -4.86558 
1151 2 0.764534 -4.84738 -4.87463 
487 1 2.05426 -5.36434 -4.73705 
223 1 1.30826 -5.50194 -5.60271 
481 1 2.94199 -4.79043 -5.57762 
1114 2 3.26639 -5.86434 -5.76664 
1239 2 3.98271 -5.77968 -5.12365 
442 1 3.6907 -4.77682 -4.80711 
1714 2 4.50885 -5.51196 -4.60845 
1759 2 4.88208 -5.44474 -5.50677 
1347 2 5.60319 -5.31418 -5.13385 
1961 2 -5.32183 -4.67051 5.89259 
280 1 -5.56712 -3.63357 -5.38734 
75 1 -4.62512 -3.52073 -4.77118 
1390 2 -4.78701 -4.5836 -5.06872 
1849 2 -4.1014 -4.13828 -5.41174 
1467 2 -3.44205 -4.01946 -5.03221 
1472 2 -2.63814 -3.64897 -5.1555 
1690 2 -2.85109 -3.34499 5.75191 
288 1 -1.89848 -4.25665 -5.6398 
902 1 -0.716219 -4.11603 -5.52156 
1515 2 -1.73258 -3.4676 -4.74873 
107 1 -0.438489 -4.35367 -4.43563 
855 1 0.0846087 -3.80342 -4.98088 
202 1 0.822481 -3.36877 -5.40751 
738 1 0.0338977 -3.5983 5.95803 
1344 2 1.23726 -4.4101 -5.62754 
1503 2 1.52184 -4.39284 -4.72847 
1 1 0.901817 -3.59044 -4.52277 
2004 2 2.0622 -4.0738 -5.32303 
1081 2 3.03301 -3.6565 -4.96719 
1260 2 2.82992 -3.67051 -5.784 
857 1 3.78893 -4.44172 -5.63518 
622 1 4.83837 -4.4185 -5.23832 
1528 2 4.20825 -3.48542 -4.63324 
826 1 5.53026 -3.69842 -5.67496 
49 1 5.69238 -4.16317 -4.98766 
1089 2 5.82056 -2.11427 5.34637 
1929 2 -4.94104 -1.87997 -5.76214 
1902 2 -5.39794 -2.33084 -5.32638 
1491 2 -4.73824 -2.28578 -4.62316 
290 1 -4.53031 -3.05869 -5.56092 
967 1 -4.02336 -2.95755 -5.08095 
773 1 -3.46319 -2.58849 -5.67372 
965 1 -2.55944 -2.30083 -5.555 
595 1 -2.98312 -2.66897 -4.85492 
1581 2 -0.974285 -3.21318 -5.08152 
151 1 -1.98456 -2.4138 -4.72404 
1898 2 -1.91695 -3.20576 -5.59357 
1555 2 0.40348 -2.20983 -5.85891 
1630 2 0.200046 -2.58533 -4.90163 
1495 2 -0.503181 -2.70363 -5.62217 
416 1 1.80457 -3.33998 -4.73633 
939 1 3.19365 -2.13109 5.65547 
1001 1 2.47032 -2.89605 -5.0176 
20 1 3.47144 -2.40661 -5.26186 
1678 2 3.79236 -3.39737 -5.49089 
928 1 4.27774 -2.26867 -5.02517 
1300 2 4.03264 -2.97656 5.55058 
1813 2 4.70205 -3.15862 -5.34048 
1341 2 5.74497 -2.45025 -5.79928 
117 1 -5.38008 -1.12461 -4.93813 
212 1 -4.44808 -1.16865 -4.58257 
1475 2 -3.85102 -1.72688 -5.1029 
592 1 -4.78143 -0.674809 -5.40723 
1296 2 -3.17948 -1.42191 -5.70284 
1713 2 -2.47466 -1.34105 -5.15265 
741 1 -1.76535 -1.9672 -5.94669 
1410 2 -1.82344 -0.864013 -5.7757 
657 1 -1.33485 -2.03186 -5.15808 
788 1 -1.20604 -1.39695 5.54171 
1975 2 -1.78855 -1.07091 -4.87837 
768 1 -0.64999 -1.52336 -5.6966 
674 1 0.513407 -0.859348 5.8795 
1946 2 1.39789 -1.79483 -5.76061 
578 1 1.25007 -0.928371 -5.18232 
1578 2 2.17655 -1.48062 5.7135 
1923 2 2.11277 -1.81183 -5.00694 
1259 2 2.7388 -1.30572 -5.69465 
1982 2 3.232 -1.51293 -4.89784 
1615 2 4.63792 -0.616275 -5.15736 
904 1 4.12183 -1.91053 -5.89787 
1087 2 3.75093 -0.9645 -5.33805 
403 1 5.85638 -1.26141 -5.43841 
66 1 4.90163 -1.5837 -5.57983 
2014 2 5.49568 -0.129148 -5.57574 
385 1 5.2562 -1.75613 -4.91382 
1964 2 -4.93864 0.400724 -5.28077 
1037 2 -5.4612 -0.0450677 -4.75836 
205 1 -3.79419 -0.509021 -5.17733 
1939 2 -4.38652 0.678251 -5.82706 
1775 2 -3.81977 0.495612 -4.90636 
771 1 -3.05026 -0.397155 -4.95148 
833 1 -2.79844 0.0971153 -5.58586 
291 1 -2.0173 0.0922669 -5.15837 
1243 2 -1.0275 -0.595991 -5.24729 
701 1 -1.33755 0.572082 -5.73071 
848 1 -1.18888 0.351991 -4.79639 
1631 2 -0.0655145 -0.0192253 -5.56831 
1271 2 -0.323957 -0.444156 -4.81133 
1809 2 -0.834542 -0.282703 5.8656 
908 1 1.56453 -0.535799 -5.83925 
1223 2 0.496511 -0.157495 -5.02956 
1870 2 1.21539 0.434429 -5.50707 
900 1 2.20537 -0.596717 -5.06671 
125 1 3.22054 -0.379517 -4.70035 
105 1 3.15299 -0.0571817 -5.5261 
138 1 3.97196 0.0394549 -4.71646 
581 1 3.92391 0.284479 -5.69999 
1634 2 5.45486 -0.277924 -4.78565 
1083 2 -5.68523 0.215032 -5.68475 
866 1 4.65121 0.775522 -5.76174 
960 1 4.76726 0.561462 -5.03983 
164 1 -4.65537 1.59031 -5.88466 
1861 2 -5.76131 2.16838 -5.0183 
921 1 -5.23569 1.35823 -4.86543 
494 1 -4.58192 1.1052 -4.29617 
824 1 -4.33443 1.44497 -4.98365 
903 1 -3.51501 1.91228 -5.01581 
1736 2 -3.48009 0.879242 -5.56963 
1876 2 -1.91887 1.33397 -5.15646 
2028 2 -2.64727 1.09399 -5.09163 
1212 2 -1.01252 1.74188 -4.74705 
1821 2 -1.75441 1.74581 -5.86095 
505 1 -0.603863 0.848246 -5.33002 
1506 2 -0.232189 2.03051 -5.24595 
594 1 0.0485093 1.20002 -5.80585 
451 1 0.833654 1.18435 -5.08338 
780 1 1.69868 1.74636 -5.8495 
570 1 1.77614 1.46056 -4.82998 
1500 2 1.97447 0.445358 -4.97368 
1314 2 2.99071 0.675085 -4.52804 
118 1 2.87552 1.76339 -4.71606 
2027 2 2.67484 0.740409 -5.26558 
1225 2 3.73154 1.07609 -4.51447 
1210 2 4.49467 1.56087 -4.946 
1696 2 4.48103 1.84507 -5.69507 
1502 2 3.60532 1.31699 -5.34434 
299 1 5.67508 0.972773 -5.14902 
1572 2 5.21674 1.86581 -4.92595 
1603 2 5.27239 2.01386 -5.84467 
755 1 5.79482 3.04116 -4.51044 
1403 2 -5.80633 2.40792 -5.73827 
1204 2 -4.92583 2.5315 -5.43672 
1800 2 -4.40783 2.50273 -4.57249 
1482 2 -3.24002 3.25086 -5.28767 
1431 2 -4.1253 3.01123 -5.57394 
697 1 -2.97595 2.21786 -5.67669 
546 1 -2.39169 2.75239 5.50474 
709 1 -2.22786 2.51682 -5.5147 
852 1 -0.931564 2.92147 -5.00691 
552 1 -1.56702 2.91223 -5.61824 
1945 2 -0.924213 2.05294 -5.8164 
1054 2 0.542751 2.55076 -5.9766 
1322 2 0.648594 2.27479 -5.01203 
884 1 -0.197212 3.12734 -4.90192 
1085 2 1.26125 2.66214 -5.54926 
1653 2 2.05772 2.82249 -5.07017 
482 1 2.4228 1.89598 -5.4409 
1274 2 2.80911 3.12639 -4.90087 
1933 2 2.37813 3.35741 -5.62219 
762 1 4.34927 2.55427 -4.81587 
869 1 3.18346 2.33481 -5.62789 
523 1 3.93588 2.75182 -5.6061 
178 1 5.10447 2.66486 -4.2024 
235 1 4.94676 2.8576 -5.10638 
676 1 -5.20435 3.50779 -5.23961 
396 1 -5.10867 3.29952 -4.37727 
1311 2 -5.36541 4.47427 -4.73218 
923 1 -4.39896 3.88203 -4.97682 
369 1 -3.55409 4.22267 -4.92491 
146 1 -2.41284 4.55204 -5.29317 
1336 2 -2.3954 3.47339 -5.00676 
1934 2 -2.5931 3.67221 5.91085 
1756 2 -1.63166 3.88321 -5.33915 
1093 2 0.166533 4.52299 -5.63221 
1042 2 0.360283 4.42 -4.64956 
1378 2 -0.555293 4.16594 -5.00659 
491 1 0.261525 3.52592 -5.66643 
716 1 0.718377 3.46696 -4.93225 
777 1 2.17872 4.29997 -5.4274 
39 1 1.22253 3.76392 -5.5993 
262 1 2.37018 3.98302 -4.4954 
1016 1 3.12053 4.30592 -4.655 
1146 2 3.17106 3.61367 -5.836 
1214 2 3.75233 3.2737 -3.87193 
1779 2 3.70679 3.50405 -4.89977 
1072 2 4.89471 4.27378 -5.16805 
1349 2 5.75055 4.3075 -5.09598 
97 1 5.61604 3.24323 -5.4877 
1969 2 4.89262 4.49012 5.92527 
14 1 -5.45772 5.71767 -5.28042 
1376 2 -5.20868 4.8913 -5.61113 
961 1 -5.00296 5.70037 -4.27385 
1088 2 -4.20162 5.2663 -5.69539 
1539 2 -3.39494 5.67728 -5.85505 
1989 2 -3.52012 5.52615 -5.05574 
1662 2 -4.62017 4.9088 -4.81616 
1526 2 -2.70511 5.90016 -5.44644 
797 1 -1.70585 4.93309 -4.93935 
607 1 -1.94337 5.15745 -5.81673 
120 1 -1.23206 5.30233 -5.51697 
836 1 -0.572249 5.65401 -5.57468 
1013 1 0.168745 5.63685 -5.12968 
276 1 -0.648624 5.13663 -4.79328 
1955 2 0.85511 4.91355 -5.50299 
1145 2 1.60033 4.94139 -4.92932 
1090 2 3.11707 5.77602 -4.96736 
1901 2 2.24497 5.40323 -5.04383 
501 1 2.89974 4.65963 -5.42528 
432 1 3.65718 4.88398 -5.24986 
399 1 4.18115 4.74371 -4.47633 
1316 2 5.86618 4.51465 5.89204 
181 1 5.4687 5.39293 -4.98129 
927 1 4.48678 5.21697 -5.1027 
2034 2 -4.63448 -4.838 -4.2026 
1699 2 -5.54904 -5.2973 -4.37769 
1203 2 -5.02838 -5.49498 -3.57107 
1411 2 -3.65495 -4.75722 -3.71888 
974 1 -3.2679 -5.71802 -3.84217 
147 1 -3.03627 -5.20765 -4.67149 
467 1 -2.35252 -5.26014 -3.84071 
1329 2 -1.12481 -5.7923 -4.38298 
227 1 -1.47083 -4.85474 -4.13964 
1338 2 -0.0714054 -5.27297 -4.73908 
1747 2 -0.419915 -5.69324 -3.86002 
1957 2 0.377315 -5.27705 -3.64465 
1828 2 1.02817 -4.99828 -4.09521 
43 1 1.67781 -5.89131 -4.33378 
675 1 2.88448 -5.20143 -4.72232 
1915 2 1.80422 -4.77275 -3.72817 
931 1 2.44657 -5.59284 -3.92278 
511 1 3.46026 -5.28123 -3.90451 
878 1 4.35967 -5.0097 -3.61141 
684 1 4.38519 -4.58393 -4.34127 
1307 2 5.43665 -5.57619 -4.32047 
955 1 5.30161 -4.50972 -4.22899 
2016 2 -5.89668 -5.79423 -3.68394 
353 1 -4.95244 -4.307 -3.39662 
196 1 -5.42181 -3.76472 -4.49177 
218 1 -4.62161 -3.70687 -3.92984 
339 1 -4.16871 -3.90942 -3.16298 
1931 2 -4.01177 -4.55402 -4.51815 
465 1 -3.5275 -3.46138 -3.52406 
1617 2 -3.22751 -4.20018 -4.24158 
1559 2 -2.30695 -3.86333 -4.4239 
1991 2 -1.25786 -3.61706 -4.03139 
1425 2 -1.87869 -4.09975 -3.70104 
497 1 0.355597 -4.17601 -3.99488 
260 1 0.151205 -4.50297 -3.12572 
569 1 1.05362 -3.99725 -3.54419 
938 1 1.74876 -3.59449 -3.86587 
2017 2 2.34969 -4.30595 -4.52258 
1765 2 2.70555 -4.32098 -3.81093 
547 1 2.51645 -3.36346 -3.49974 
1236 2 3.43938 -3.93708 -4.30489 
1657 2 4.01379 -3.946 -3.4313 
1198 2 4.98346 -3.40427 -4.22118 
277 1 3.51087 -3.03692 -3.46149 
242 1 -5.60597 -4.43969 -3.90461 
2019 2 5.12443 -3.75333 -3.47294 
1705 2 5.93274 -3.16616 -3.91567 
1465 2 -5.58296 -2.80557 -4.57295 
475 1 5.93006 -2.13786 -3.76608 
922 1 -3.87746 -3.40113 -4.33709 
1478 2 -3.99037 -2.31583 -4.17853 
1937 2 -4.88394 -2.63973 -3.88817 
504 1 -2.88033 -2.98125 -3.98155 
1442 2 -3.0682 -2.22118 -3.43238 
1197 2 -0.371759 -3.14853 -4.46034 
236 1 -1.9953 -2.73218 -4.01634 
8 1 -1.13958 -2.39078 -4.33634 
1894 2 0.54549 -2.80254 -4.10185 
1881 2 -0.166226 -3.36835 -3.61344 
1231 2 0.39247 -3.02028 -3.18546 
1380 2 1.06917 -2.31548 -4.93982 
1363 2 1.67242 -2.26529 -4.38061 
1326 2 1.38925 -2.70754 -3.53166 
245 1 2.84767 -2.85935 -4.27656 
1698 2 2.33199 -2.22421 -3.68196 
136 1 3.72538 -2.66622 -4.35148 
1082 2 5.33007 -2.84785 -4.8258 
161 1 4.94915 -2.16508 -4.08998 
999 1 5.9378 -1.62012 -4.44491 
948 1 -5.08858 -1.49722 -4.03248 
1299 2 -5.81914 -0.666777 -3.8497 
344 1 -4.02471 -1.30143 -3.69712 
37 1 -3.54891 -0.80273 -4.33942 
1414 2 -2.30079 -1.57873 -4.22656 
1664 2 -3.20854 -1.73254 -4.32602 
717 1 -3.37493 -1.27344 -3.35611 
1097 2 -1.38919 -1.47122 -3.91984 
2032 2 -0.9128 -1.0049 -4.38961 
404 1 -0.00787645 -1.27191 -5.23021 
35 1 0.185578 -1.69618 -3.98832 
677 1 -0.522273 -1.85038 -4.72231 
1867 2 -0.564549 -1.15317 -3.41314 
830 1 0.662513 -1.24725 -4.63811 
599 1 1.66962 -1.05409 -4.45882 
287 1 1.16385 -1.43893 -3.76618 
916 1 2.61174 -0.88033 -4.28037 
421 1 1.94106 -1.31819 -3.52426 
1128 2 2.76699 -1.89343 -4.34138 
715 1 3.0661 -0.934898 -3.46229 
1190 2 3.47386 -1.70853 -4.02378 
1257 2 4.1146 -1.33547 -4.62754 
1286 2 5.14858 -0.901752 -4.22084 
1148 2 4.36002 -1.40698 -3.65722 
1163 2 5.48392 -1.1997 -3.35635 
1350 2 -4.8117 -0.438152 -3.8502 
489 1 5.85551 0.24462 -3.6205 
2048 2 -3.1342 0.588567 -4.48551 
1110 2 -4.43117 0.0121072 -4.44775 
1030 2 -3.66615 0.0790872 -3.82008 
214 1 -2.74026 -0.766057 -3.80576 
1797 2 -2.31096 0.768779 -4.29866 
1792 2 -2.77019 0.367375 -3.57292 
348 1 -2.19697 -0.323169 -4.27769 
789 1 -1.40355 -0.121977 -3.94818 
630 1 -0.542844 0.330936 -4.09738 
615 1 0.0555793 0.740263 -4.66018 
517 1 0.298889 0.501842 -3.70476 
1345 2 -0.116858 -0.659625 -3.93101 
776 1 -0.41109 0.135143 -3.30128 
1644 2 0.739391 -0.320074 -3.91099 
2041 2 1.37854 0.0981655 -4.44961 
1963 2 1.71096 -0.245275 -3.71506 
1952 2 2.39071 0.193674 -4.15943 
297 1 4.45863 -0.0310542 -4.04579 
195 1 3.71707 -0.408281 -3.9332 
1529 2 3.23181 0.443676 -3.64837 
708 1 4.90628 -0.156143 -3.47081 
469 1 5.16508 0.458727 -4.19143 
1172 2 -5.31151 1.84995 -3.5945 
686 1 -5.71995 0.796646 -4.35458 
189 1 -5.15857 0.695864 -3.61779 
240 1 -4.28103 0.868237 -3.51296 
613 1 -3.68638 1.48775 -4.21368 
982 1 -2.89747 1.72658 -3.94765 
593 1 -2.09095 1.94545 -3.94195 
1498 2 -1.40809 1.12879 -4.20744 
1754 2 -0.695563 1.38155 -3.81709 
1256 2 -1.85835 0.695827 -3.54079 
1222 2 -0.212169 1.76754 -4.45341 
2001 2 0.0658777 1.51588 -3.33611 
374 1 0.941924 0.975195 -4.24623 
1298 2 0.570448 1.85775 -3.92252 
827 1 1.68647 1.12065 -3.95013 
551 1 2.34679 1.37288 -4.17361 
382 1 3.21386 1.9015 -3.86841 
439 1 3.43805 2.30576 -4.81213 
1505 2 4.06036 1.03977 -3.8062 
188 1 3.95968 2.18921 -4.10158 
1470 2 5.68239 1.73081 -4.16766 
1986 2 4.9276 1.097 -3.32589 
1320 2 4.79961 1.52756 -4.15394 
1512 2 -5.16003 2.15953 -4.3598 
631 1 -5.41359 2.93303 -3.68838 
1092 2 -3.54217 2.84133 -4.61183 
1485 2 -4.26053 2.18321 -3.82329 
1282 2 -3.42484 2.52635 -3.73055 
1938 2 -2.78933 3.02767 -4.15594 
1794 2 -2.39556 2.98316 -3.45518 
56 1 -2.54239 2.17527 -4.67638 
1959 2 -1.62992 3.27668 -3.53302 
956 1 -1.67108 2.48439 -4.46508 
937 1 -1.37042 2.24785 -3.59855 
76 1 0.329667 3.0269 -4.35973 
208 1 -0.444642 2.65842 -4.05892 
448 1 0.353028 2.70443 -3.36229 
1967 2 1.37203 2.31264 -4.56051 
1962 2 1.65735 2.21879 -3.60869 
653 1 1.34639 3.05712 -3.14759 
1461 2 2.23266 2.63283 -4.15217 
1158 2 2.98324 3.05963 -4.11427 
1065 2 3.35484 2.87914 -3.31092 
1769 2 3.98299 2.9162 -2.77347 
2039 2 4.55292 3.5103 -3.48227 
171 1 5.664 2.5748 -3.53484 
96 1 4.68595 2.5612 -3.62364 
1207 2 -5.66359 4.04908 -3.99453 
1977 2 5.61218 3.74008 -3.47673 
1636 2 -4.79922 4.39435 -3.8819 
926 1 -4.20861 3.67146 -4.25954 
882 1 -4.55002 3.16542 -3.39418 
1278 2 -3.81021 4.49851 -3.38109 
1772 2 -1.79758 3.46694 -4.23162 
298 1 -3.29713 3.9019 -4.16962 
577 1 -2.52866 4.43843 -4.40579 
323 1 -2.79727 4.09628 -3.55712 
1142 2 -1.15337 3.84171 -4.62633 
165 1 -1.18136 4.36783 -3.12021 
1175 2 -0.86412 3.54762 -3.8565 
1304 2 -0.109171 3.92864 -4.07807 
1869 2 0.612534 4.21442 -3.62594 
407 1 1.49187 3.71417 -4.68854 
394 1 0.976143 3.26241 -3.9325 
143 1 1.97295 3.55938 -3.85673 
1926 2 1.39389 4.49547 -3.61551 
835 1 2.86254 4.00438 -3.76854 
166 1 3.66744 4.45968 -3.84342 
582 1 4.67193 4.63056 -3.47763 
1562 2 4.43228 3.6669 -4.42415 
1670 2 5.31719 3.93108 -4.36542 
918 1 -5.22794 5.20118 -3.3849 
443 1 -5.82832 5.27241 -4.37709 
825 1 -4.13252 -5.95379 -3.75654 
1365 2 -3.90906 4.92753 -4.17729 
1138 2 -2.67805 5.42693 -4.69405 
1073 2 -3.07274 5.21049 -3.9483 
2029 2 -1.91096 5.79964 -4.50155 
1417 2 -2.08286 5.49406 -3.70681 
1551 2 -1.26949 5.60693 -3.56334 
474 1 -2.06408 4.46411 -3.67428 
733 1 -1.47898 4.76056 -4.11935 
17 1 0.156029 5.35544 -4.26258 
638 1 -0.537604 4.82572 -3.79773 
41 1 0.197192 5.12352 -3.40456 
1353 2 -0.688755 5.78399 -3.01253 
1607 2 1.01348 4.58582 -4.33398 
340 1 0.837647 5.74267 -4.02624 
1764 2 2.69504 5.34357 -4.24476 
1499 2 1.86354 4.84251 -4.00938 
1854 2 2.43775 4.85028 -3.42724 
1234 2 3.47648 5.10827 -3.09515 
1846 2 3.96735 5.6906 -4.36861 
1847 2 3.35862 5.43523 -3.86634 
946 1 5.00814 5.04806 -4.28373 
1192 2 4.84115 5.92437 -3.8096 
742 1 5.57886 4.81798 -3.63432 
1227 2 -4.86464 -5.6848 -2.55791 
724 1 -5.21785 -4.95374 -2.17621 
1534 2 -4.38376 -5.07418 -3.1928 
1807 2 -3.97975 -5.1974 -2.4331 
229 1 -2.81005 -5.6539 -3.07432 
1047 2 -3.37159 -4.90232 -2.79688 
1285 2 -2.48607 -4.71316 -2.23244 
1014 1 -1.6069 -5.31241 -3.38155 
459 1 -1.09512 -5.08734 -2.84718 
184 1 -2.09934 -5.46131 -2.79713 
672 1 -0.59751 -4.7377 -3.54948 
1818 2 0.121628 -5.74714 -3.02761 
203 1 -0.309082 -4.90552 -2.50543 
1530 2 1.10301 -5.22897 -3.18869 
1928 2 0.794459 -5.65517 -2.48189 
1749 2 1.68883 -5.62118 -2.11521 
1611 2 1.83352 -5.21594 -2.83624 
1859 2 2.5586 -4.65218 -2.92628 
1907 2 2.52051 -5.3746 -1.8781 
180 1 3.0279 -5.57224 -3.18058 
19 1 3.95976 -5.3205 -2.86263 
1232 2 3.34362 -4.57161 -2.47455 
1592 2 3.3578 -4.37426 -3.36339 
516 1 5.31016 -4.8905 -3.48392 
130 1 4.81092 -5.16089 -2.69157 
847 1 5.69398 -5.12593 -2.47325 
284 1 -5.65709 -4.68644 -3.04366 
1750 2 5.90242 -3.74585 -2.95703 
1887 2 -5.81374 -4.00338 -2.01051 
1655 2 -5.2381 -3.43336 -2.51795 
273 1 -3.8008 -3.99143 -2.40114 
798 1 -4.78028 -4.29853 -2.51206 
153 1 -4.35109 -4.42379 -1.68633 
441 1 -2.95178 -3.56526 -2.78657 
1848 2 -2.78706 -4.41153 -3.39116 
251 1 -2.0399 -3.35558 -2.51304 
411 1 -2.24186 -3.21454 -3.32634 
634 1 -2.79929 -3.75366 -1.87086 
1711 2 -1.0623 -3.90321 -3.25005 
1046 2 -1.87115 -4.37718 -2.83723 
1602 2 -1.27177 -4.00192 -2.4753 
1535 2 -1.58448 -4.57487 -1.91632 
1922 2 -0.325962 -3.65845 -2.62663 
305 1 0.964827 -4.2766 -2.8016 
249 1 1.84505 -3.93302 -2.97953 
1381 2 0.545674 -3.50377 -2.28558 
1019 1 2.30447 -4.0108 -2.21093 
754 1 3.15012 -3.40743 -2.83131 
1844 2 4.07635 -4.34296 -2.68599 
981 1 4.04503 -3.25108 -2.76325 
1737 2 4.93664 -4.06087 -2.74372 
1129 2 5.17908 -4.28732 -2.02798 
1995 2 -5.32094 -3.28949 -3.32042 
914 1 -5.735 -2.57658 -2.74176 
636 1 -4.92313 -2.2316 -2.32599 
1483 2 -3.42775 -2.6868 -2.49899 
2007 2 -3.84334 -2.46 -3.37256 
1319 2 -4.15403 -3.07657 -2.39067 
1119 2 -4.60868 -2.89013 -3.01774 
1817 2 -2.61872 -2.31809 -2.7585 
1993 2 -1.80972 -2.06908 -2.50286 
402 1 -1.37387 -2.89245 -2.63016 
150 1 -1.18477 -2.8606 -3.45814 
313 1 -0.609705 -2.17368 -3.79253 
875 1 -0.578137 -2.59826 -2.89348 
844 1 0.119937 -2.14041 -3.17095 
1896 2 1.25972 -2.95174 -2.72379 
573 1 0.672432 -2.23991 -2.22482 
986 1 0.990887 -1.75458 -2.9965 
1533 2 2.12706 -2.57471 -2.82321 
1250 2 3.03607 -2.09442 -3.19279 
1580 2 2.87466 -2.51874 -2.27664 
1942 2 1.82652 -3.03957 -2.17507 
179 1 4.41618 -2.68411 -3.65698 
1947 2 3.72265 -2.41576 -2.10346 
1167 2 4.64458 -2.23751 -2.11257 
661 1 4.79507 -2.98662 -2.72163 
550 1 5.44733 -2.62686 -3.2385 
140 1 5.50367 -2.99072 -2.35983 
784 1 -5.41281 -1.93218 -3.24204 
1184 2 -5.35156 -0.794639 -3.00329 
1337 2 -4.45131 -0.855445 -2.58211 
532 1 -4.44276 -1.73466 -3.09308 
682 1 -3.83917 -1.70192 -2.53789 
1545 2 -2.05976 -1.93073 -3.37695 
234 1 -2.85623 -1.45662 -2.10417 
252 1 -2.52336 -1.15865 -2.95505 
1911 2 -1.27847 -1.75042 -2.97503 
271 1 -1.80874 -1.05344 -2.66277 
1573 2 -0.635418 -1.89634 -1.62782 
1673 2 -0.671752 -1.5657 -2.5499 
1456 2 0.215214 -1.25086 -2.54577 
1057 2 0.379391 -0.895644 -3.24193 
1804 2 1.21143 -0.964884 -2.1333 
705 1 1.74975 -1.65297 -2.62073 
700 1 2.30578 -1.89283 -1.77458 
427 1 2.67037 -1.4651 -2.54437 
1263 2 3.98446 -1.90394 -3.00564 
518 1 4.4447 -0.801651 -2.45686 
241 1 3.47609 -0.993343 -2.54599 
2035 2 -5.79457 -1.19451 -2.46255 
1641 2 4.92699 -1.61933 -2.85595 
958 1 5.87482 0.0720053 -2.71928 
32 1 -5.03233 0.221416 -2.83601 
279 1 -4.65798 0.133522 -1.91894 
1725 2 -4.06878 -0.347856 -3.17906 
472 1 -4.21943 0.643155 -2.66693 
1893 2 -3.71273 -0.684004 -2.39139 
1206 2 -3.20173 -0.183192 -2.8953 
1025 2 -2.56647 -0.251391 -2.17932 
1104 2 -2.17208 0.16931 -2.81404 
499 1 -1.97888 -0.620863 -3.42293 
121 1 -1.23388 -0.381062 -3.00084 
1643 2 -1.39626 0.517104 -2.53276 
886 1 -0.308144 -0.27744 -2.49843 
1021 1 0.333666 0.189464 -2.7495 
2046 2 1.09371 -0.510096 -3.04947 
90 1 1.05329 0.410018 -2.70926 
895 1 1.78236 0.474366 -2.41907 
1832 2 1.93261 -0.638342 -2.63793 
1858 2 2.37161 -0.264759 -3.19454 
1468 2 3.21572 -0.0502132 -2.86398 
42 1 4.13503 -0.429002 -3.20702 
1220 2 3.9365 0.698952 -2.97547 
1059 2 4.69032 0.613084 -2.65575 
912 1 5.08875 -0.377871 -2.74721 
1777 2 -4.50238 1.78656 -3.14782 
1361 2 -5.41734 1.29859 -2.86558 
1953 2 -5.64186 1.04973 -2.20883 
1727 2 -4.77364 1.27809 -2.34848 
1689 2 -3.58393 2.13636 -3.01949 
1720 2 -3.79557 1.7293 -2.19407 
910 1 -3.47287 0.644942 -2.44218 
719 1 -3.5256 1.16168 -3.25809 
301 1 -2.74511 1.3956 -3.07213 
876 1 -2.60985 1.06308 -2.32368 
1830 2 -1.08807 0.995521 -3.2163 
561 1 -1.91245 1.73363 -3.07114 
660 1 -1.08748 1.84668 -2.72047 
115 1 -1.74241 1.39211 -2.19624 
1550 2 -0.358513 0.994569 -2.68297 
1999 2 0.298683 1.10767 -2.31832 
401 1 1.93521 0.73347 -3.1648 
1884 2 0.931734 1.58712 -3.04762 
80 1 1.05852 0.719098 -3.46473 
1187 2 1.40296 1.49131 -2.19695 
1050 2 1.73476 1.69046 -2.98068 
726 1 2.86423 1.32129 -3.27003 
50 1 2.61806 0.773335 -2.4916 
408 1 3.41389 1.39186 -2.60096 
574 1 4.35659 1.4745 -2.15209 
447 1 3.82335 1.82501 -3.21131 
1068 2 5.78991 1.28683 -3.23269 
7 1 4.54369 2.01155 -2.86842 
1654 2 5.52101 0.92402 -2.31322 
739 1 -5.49817 2.57007 -2.97445 
460 1 -4.63296 2.69046 -2.58569 
751 1 -5.19018 2.23143 -2.0771 
879 1 -3.90759 3.22155 -2.66836 
772 1 -3.38905 2.97967 -2.04198 
1415 2 -2.82126 2.52467 -2.8409 
1247 2 -2.86611 1.97619 -2.12987 
1983 2 -2.06957 2.45954 -2.20414 
1183 2 -1.73879 2.92992 -2.76325 
885 1 -0.510015 2.33466 -3.20232 
183 1 0.676226 2.43941 -2.46518 
828 1 -0.333095 2.14743 -2.37453 
478 1 1.55429 2.7331 -2.36015 
896 1 2.23916 3.24611 -3.0541 
1681 2 2.52603 2.36728 -3.28414 
1642 2 2.34963 1.95938 -2.42875 
641 1 2.61521 3.16113 -2.23638 
2020 2 3.10518 2.33308 -2.41865 
690 1 3.35079 3.36888 -1.86333 
811 1 5.43128 2.14536 -2.88562 
1105 2 4.65472 3.06138 -2.30947 
1439 2 5.62412 3.13814 -1.89924 
1333 2 -5.63541 3.60872 -2.74585 
1335 2 -5.10099 4.09308 -3.09928 
1048 2 -4.94111 3.66949 -2.3112 
204 1 -3.69222 3.48905 -3.48743 
1419 2 -4.2431 4.2049 -2.76716 
1339 2 -3.36596 4.38738 -2.34585 
568 1 -2.99253 3.60052 -2.86749 
45 1 -2.04481 4.10615 -2.8924 
221 1 -2.70566 3.42584 -2.02611 
1267 2 -0.833594 3.19068 -2.78935 
418 1 -1.19637 4.11983 -2.25976 
26 1 -0.313642 4.67896 -2.93412 
1997 2 -0.124594 3.62389 -3.27291 
1071 2 -0.019755 3.19921 -2.39256 
1268 2 1.49868 4.24068 -2.87415 
1974 2 0.779123 3.81308 -2.64223 
1178 2 1.81154 3.93009 -2.13642 
370 1 3.05997 3.67751 -2.74498 
1428 2 2.36412 4.36098 -2.58255 
650 1 3.67132 4.07914 -3.05475 
258 1 3.84573 3.81493 -2.29733 
440 1 4.57071 4.18331 -2.51379 
1786 2 5.29825 3.41361 -2.75408 
355 1 5.29504 4.60792 -2.80469 
993 1 5.13857 4.16482 -1.7943 
93 1 5.91837 4.24637 -2.03572 
453 1 -5.65381 4.85786 -2.84384 
119 1 -5.23907 4.66284 -1.8629 
13 1 -4.73988 5.1201 -2.5422 
1126 2 -5.61161 5.90165 -2.7592 
662 1 -4.24479 5.42571 -3.02155 
679 1 -3.7325 5.37322 -2.11973 
326 1 -3.48882 5.83263 -2.80755 
1527 2 -3.17123 4.94333 -3.14871 
1413 2 -2.41917 5.16465 -2.82078 
1510 2 -1.63124 5.04062 -1.89916 
860 1 -2.73696 5.82308 -2.22066 
1575 2 -1.49108 5.32391 -2.75886 
1191 2 -0.790207 5.23753 -2.13677 
564 1 0.530859 4.76488 -2.528 
1038 2 -0.115499 5.7157 -2.28511 
64 1 1.6432 5.67161 -3.4739 
736 1 1.02405 5.41723 -2.97203 
498 1 1.23026 4.97348 -1.99622 
361 1 1.77058 5.26853 -2.4757 
1161 2 3.13229 4.64244 -2.20005 
131 1 2.44645 5.65137 -2.88861 
1875 2 4.32387 5.49827 -3.25277 
1489 2 4.08738 5.19402 -2.377 
1405 2 5.471 5.83695 -3.08491 
1362 2 4.92805 5.50833 -2.50077 
269 1 -5.08313 -4.94413 -1.2899 
991 1 -5.8297 -5.20157 -1.44655 
282 1 -5.72158 -5.48457 -0.668285 
2000 2 -4.22842 -5.5568 -1.73549 
633 1 -3.98329 -4.70516 -0.931385 
1272 2 -3.3628 -5.67845 -1.13508 
1477 2 -3.13255 -5.15244 -1.78928 
1079 2 -2.29059 -4.98788 -1.41485 
1040 2 -2.53993 -5.32357 -0.653123 
1394 2 -1.52154 -4.88549 -0.852948 
678 1 -1.41237 -5.59842 -2.10155 
317 1 -0.631595 -5.47591 -1.83502 
286 1 0.192403 -5.22883 -1.23969 
807 1 -0.446963 -5.65831 -0.981552 
693 1 0.485485 -4.70714 -2.10316 
934 1 1.15346 -4.78678 -1.3915 
1543 2 1.11954 -5.88203 -1.49793 
1864 2 2.59894 -5.78391 -0.833089 
1880 2 1.8446 -5.91731 -1.26421 
602 1 2.17648 -4.44558 -1.501 
1906 2 3.37571 -5.08887 -1.74919 
802 1 5.31849 -5.49261 -1.76131 
586 1 4.44779 -5.52911 -2.02495 
1521 2 4.26883 -5.01646 -0.925058 
490 1 5.38987 -5.79728 -1.06082 
1836 2 -5.76615 -4.07458 -1.11007 
1948 2 -4.95253 -3.65468 -1.54373 
1217 2 -5.16007 -4.17234 -0.317798 
524 1 -3.53613 -4.20172 -1.61723 
2010 2 -3.99882 -3.33755 -1.50236 
71 1 -2.24697 -3.97678 -1.05179 
816 1 -2.92788 -4.27992 -0.767396 
398 1 -1.82708 -3.48979 -1.66441 
366 1 -0.932693 -3.41656 -1.07349 
1452 2 -0.959484 -4.48855 -1.35126 
1748 2 -0.543774 -4.03566 -1.96163 
1812 2 0.110555 -3.9362 -1.50168 
1770 2 -0.192463 -4.4059 -0.736067 
954 1 1.47331 -4.42935 -2.15634 
1973 2 1.1889 -3.45888 -1.70381 
455 1 3.24622 -3.78592 -1.93785 
1066 2 2.38732 -3.17176 -1.64078 
1487 2 4.34756 -4.66819 -1.72478 
328 1 4.07911 -3.55264 -1.91909 
352 1 3.05722 -4.24024 -1.19846 
976 1 3.99918 -3.84857 -1.19981 
311 1 4.93432 -3.31154 -1.78709 
1201 2 5.25723 -4.45374 -1.30329 
321 1 4.75469 -3.68977 -1.0368 
548 1 -5.43894 -2.84768 -0.858323 
917 1 -5.58377 -2.54529 -1.78275 
646 1 -4.54591 -2.65706 -0.60679 
99 1 -4.79222 -2.50472 -1.42596 
167 1 -3.73824 -2.36562 -0.881875 
1851 2 -3.21664 -2.89878 -1.44809 
1908 2 -2.49934 -2.60598 -1.88735 
1321 2 -2.82982 -3.18766 -0.626575 
1537 2 -1.57756 -2.20477 -1.7194 
1216 2 -2.20686 -2.79299 -1.05136 
324 1 -0.998571 -3.03094 -1.88734 
1052 2 -0.622689 -2.11849 -0.850068 
246 1 -0.224556 -3.05459 -1.36817 
998 1 -0.124351 -2.63448 -2.17319 
600 1 0.679613 -2.61812 -1.36703 
106 1 1.42703 -2.05301 -1.92362 
11 1 1.57508 -2.47166 -1.10872 
1658 2 3.41666 -2.77427 -1.28528 
691 1 2.7873 -1.97668 -1.03417 
1738 2 4.42367 -2.61158 -1.30821 
1787 2 3.7477 -2.96626 -0.627208 
1645 2 4.70526 -2.69834 -0.322146 
606 1 5.6945 -3.14901 -1.37306 
1156 2 5.33293 -2.20396 -1.46846 
1445 2 5.56376 -2.17812 -0.584427 
1978 2 -4.99309 -1.24223 -2.11696 
1279 2 -5.00314 -1.45027 -1.33745 
1237 2 -5.83959 -1.5139 -1.59218 
177 1 -3.92387 -2.04738 -1.72294 
1310 2 -4.19904 -1.04441 -1.56444 
1352 2 -3.59162 -1.09209 -0.906027 
951 1 -3.11005 -1.84263 -1.45908 
449 1 -2.3687 -1.65906 -1.24814 
963 1 -1.93328 -1.23811 -1.84009 
144 1 -1.21718 -1.08026 -1.23852 
419 1 -1.09625 -0.842005 -2.09926 
1517 2 0.216166 -1.41654 -1.75386 
243 1 -0.458709 -0.766289 -1.46836 
1635 2 0.316046 -1.86961 -0.866595 
1682 2 0.954748 -1.21347 -1.29257 
1568 2 1.87879 -0.968999 -1.65477 
1266 2 1.7998 -1.26258 -0.937514 
1916 2 2.76524 -0.751655 -1.22128 
116 1 3.17666 -1.55385 -1.78607 
640 1 3.79159 -1.64528 -0.88875 
962 1 3.98871 -1.34564 -1.69932 
1492 2 5.43317 -1.71252 -2.15736 
983 1 4.81846 -0.962487 -1.71603 
145 1 5.50741 -0.906667 -1.08321 
626 1 4.66614 -1.37764 -0.931191 
198 1 -4.50369 -0.267606 -1.0797 
703 1 -5.52651 -0.164478 -1.95449 
654 1 -3.81145 0.205188 -1.63171 
969 1 -3.61897 -0.0900208 -0.732925 
1432 2 -3.27631 -0.676161 -1.71267 
1826 2 -2.53414 -0.530425 -1.29101 
692 1 -2.9976 0.598131 -1.73216 
1972 2 -1.77601 0.0738007 -1.87793 
1436 2 -0.980716 0.24787 -1.34603 
1589 2 -1.67472 -0.196691 -0.881493 
1594 2 -0.386712 0.131486 -0.719576 
625 1 0.16582 -0.336383 -1.75936 
1683 2 -0.624057 0.693815 -1.95378 
1834 2 0.0780621 0.667333 -1.31435 
601 1 0.6837 -0.339026 -1.10214 
842 1 1.6717 0.199212 -1.65737 
749 1 0.908618 -0.0492755 -1.95532 
783 1 1.5607 -0.192557 -0.950967 
1659 2 2.6754 -0.385304 -2.15108 
799 1 2.36016 0.146372 -0.920202 
95 1 2.47822 0.406641 -1.6917 
1819 2 3.57686 -0.355582 -1.40213 
1360 2 3.84892 0.0252212 -2.14345 
430 1 3.25615 0.555959 -1.14757 
1564 2 4.3886 -0.129094 -1.22879 
278 1 5.549 -0.374607 -2.0475 
1045 2 5.11124 0.0780287 -0.748465 
1229 2 4.56756 0.272136 -1.87975 
1803 2 5.45831 0.463843 -1.59116 
2030 2 -5.28644 0.911573 -1.56642 
1679 2 -5.73871 0.565577 -0.879249 
1622 2 -5.03622 0.599624 -0.685858 
1839 2 -4.53106 1.18885 -1.41598 
1728 2 -4.13614 0.914632 -0.701323 
259 1 -2.1172 0.978867 -1.37381 
1520 2 -3.66964 1.36619 -1.2848 
1135 2 -2.79748 1.47307 -0.740115 
44 1 -1.31378 1.20567 -0.927712 
823 1 -1.01277 1.58678 -1.71301 
124 1 0.217573 1.89029 -1.73457 
1860 2 0.82427 0.625122 -0.738503 
1149 2 0.924039 1.08555 -1.58525 
1386 2 1.65785 1.20172 -1.09179 
1825 2 2.2645 1.54253 -1.63105 
1994 2 2.70123 1.34955 -0.995767 
1134 2 3.19356 1.92861 -1.59604 
760 1 3.47964 1.00959 -1.8575 
621 1 4.01198 0.634252 -0.685177 
194 1 4.26708 1.08624 -1.37538 
702 1 5.07434 1.81136 -2.09223 
731 1 5.3115 1.42406 -1.27103 
1056 2 -5.43618 3.27551 -1.61403 
1000 1 -5.68558 1.84493 -1.29679 
446 1 -4.67652 2.17642 -1.16638 
1757 2 -5.09971 2.99348 -0.864723 
111 1 -4.1948 2.61211 -1.69249 
966 1 -3.56367 2.39394 -0.957768 
2021 2 -2.92187 1.74886 -1.45206 
322 1 -2.93003 2.81218 -1.2214 
381 1 -1.9321 3.28283 -1.10306 
1981 2 -2.16155 2.1718 -1.43965 
1668 2 -1.2454 2.70102 -1.94677 
2047 2 -1.37999 2.44966 -1.04519 
1170 2 -0.46912 2.80803 -1.73098 
1406 2 0.296194 3.06392 -1.50003 
906 1 1.13036 2.29915 -1.83802 
34 1 1.60457 2.20471 -1.05158 
1913 2 1.00778 3.1098 -1.04467 
256 1 2.11301 2.80782 -1.53616 
945 1 2.98905 2.74502 -1.19119 
1686 2 3.92164 2.4506 -2.03909 
1522 2 4.17522 2.14607 -1.22507 
786 1 3.89658 3.21084 -1.09061 
944 1 5.91406 2.12771 -2.06758 
1330 2 4.80431 2.72571 -1.67318 
1811 2 5.84986 2.78785 -1.02363 
1992 2 -4.46069 3.42091 -1.11169 
103 1 5.92923 4.03381 -1.13471 
774 1 -5.29804 3.95952 -0.584439 
1971 2 -4.18884 3.8948 -1.89349 
1619 2 -3.79846 3.51729 -0.790731 
1651 2 -3.34955 4.01491 -1.44481 
2033 2 -2.40188 4.6311 -1.9382 
1814 2 -2.68205 4.07999 -0.825699 
520 1 -1.20754 3.72406 -1.44202 
224 1 -1.95722 3.65776 -2.11706 
720 1 -1.17631 3.4587 -0.602874 
1023 1 -0.205779 4.25859 -2.17859 
612 1 -0.457526 3.83771 -1.31426 
985 1 0.467268 4.36735 -1.50789 
1625 2 0.931786 3.50938 -1.85114 
1109 2 1.78908 3.60114 -1.03376 
925 1 1.38029 4.53411 -1.28331 
1100 2 2.59513 3.99734 -1.4957 
1842 2 2.57249 3.63071 -0.627146 
2015 2 3.29478 4.30314 -1.37822 
437 1 4.2596 3.75561 -1.67072 
1730 2 3.49375 3.98375 -0.504632 
1633 2 4.37698 4.46039 -0.873233 
952 1 5.15318 3.72753 -1.08198 
506 1 5.45545 3.45467 -0.200503 
1548 2 -5.0538 5.86212 -1.81109 
1604 2 -5.22984 5.46406 -1.03313 
579 1 -4.83126 4.39986 -1.19763 
1822 2 -4.20791 5.90333 -0.961321 
1008 1 -4.38139 5.00777 -1.63472 
589 1 -3.79029 4.82178 -1.01876 
881 1 -3.0599 5.36212 -1.46868 
832 1 -2.22101 5.47082 -0.646211 
158 1 -2.19957 5.84038 -1.52603 
1127 2 -1.06206 4.97277 -1.31885 
1585 2 -1.92262 4.52669 -1.11873 
1646 2 -0.868886 4.60665 -0.617925 