ITEM: TIMESTEP
2500
ITEM: NUMBER OF ATOMS
2048
ITEM: BOX BOUNDS pp pp pp
-5.9566707685073315e+00 5.9566707685073315e+00
-5.9566707685073315e+00 5.9566707685073315e+00
-5.9566707685073315e+00 5.9566707685073315e+00
ITEM: ATOMS id type x y z 
1849 2 -5.67037 -4.94714 -5.00378 
514 1 -5.2613 -5.69917 -5.87427 
14 1 -4.52852 -5.42002 -5.50032 
1272 2 -5.47685 -5.39853 -4.15391 
29 1 -3.58256 -5.21419 -5.31142 
554 1 -4.26572 -5.70142 -4.70298 
3 1 -2.74915 -4.83073 -5.22518 
1365 2 -2.24681 -5.72058 -5.71129 
1151 2 -1.41759 -5.60682 -5.4278 
1291 2 -0.499446 -5.14304 -5.27754 
1526 2 -1.51398 5.90435 -4.73984 
1029 2 0.53655 -4.75956 -5.58881 
528 1 0.730646 -5.81318 -5.69139 
1746 2 -0.120761 -4.77263 5.74457 
1260 2 1.02756 -4.96651 -4.84373 
959 1 1.44731 -5.86834 -5.08897 
673 1 2.20814 -5.471 -5.23047 
931 1 2.85967 -5.01704 -5.30807 
821 1 2.19133 -4.9949 5.81991 
434 1 3.00783 -4.64253 5.8599 
57 1 3.62761 -4.93876 -4.86593 
1677 2 3.83264 -5.81128 -5.21286 
1277 2 4.41265 -5.44934 5.9607 
1604 2 4.66619 -5.64021 -5.08637 
1931 2 5.20845 -5.03647 -5.75573 
1799 2 5.51847 -5.46472 -4.9357 
19 1 -5.35668 -3.63037 -4.96965 
223 1 -5.76275 -3.38451 -5.76956 
1661 2 -4.69235 -4.42776 -5.37298 
1548 2 -3.86733 -4.27508 -5.03249 
1103 2 -4.25915 -3.83047 -5.88046 
273 1 -4.5122 -3.43546 -4.6139 
1046 2 -3.40289 -3.87994 -5.70124 
1663 2 -2.55693 -3.64471 -5.36602 
1261 2 -3.06917 -4.03182 -4.76461 
957 1 -2.21872 -4.4924 5.93028 
855 1 -1.9472 -4.68971 -5.14005 
91 1 -1.60901 -4.04457 -5.85226 
765 1 -0.966256 -4.14867 -5.38094 
247 1 -0.294789 -3.8693 -5.65358 
902 1 0.480455 -3.65422 -5.23279 
2029 2 1.0659 -4.28316 -5.8806 
1694 2 1.91461 -4.02301 -5.97588 
1705 2 1.66013 -4.60678 -5.33518 
1995 2 2.65426 -3.9308 -5.33991 
1129 2 3.43336 -3.68569 -5.33744 
2010 2 3.10448 -4.07706 -4.60138 
723 1 3.86938 -4.5956 -5.79035 
1929 2 4.16835 -3.4492 -5.09542 
555 1 5.74117 -4.00051 -5.02776 
429 1 4.8524 -4.15698 -5.32842 
2032 2 5.03484 -3.09273 -4.76442 
373 1 -4.69309 -3.05775 -5.45239 
1588 2 -4.88606 -2.10647 -5.04741 
1341 2 -3.84091 -2.01738 -4.66301 
878 1 -3.60244 -2.87715 -5.44635 
196 1 -2.86895 -2.63723 -5.11634 
151 1 -2.17441 -2.43683 -4.86022 
391 1 -2.48352 -2.13992 -5.80811 
1763 2 -0.806788 -3.04605 -5.09534 
402 1 -1.64012 -2.09521 -5.46633 
1379 2 -1.62678 -3.27082 -5.23321 
1820 2 0.0331819 -2.27065 -5.85027 
1255 2 0.0136819 -2.78836 -5.01601 
1909 2 0.802576 -2.48778 -4.82665 
1555 2 1.55427 -2.24576 -4.38015 
924 1 1.26798 -3.34102 -5.30972 
122 1 1.97972 -3.26574 -5.01736 
975 1 2.55549 -2.6583 -5.48232 
694 1 2.83631 -2.95139 -4.78674 
1722 2 4.25567 -2.92009 -5.81066 
939 1 3.49416 -2.2203 -5.61782 
1070 2 -5.68534 -2.46372 -5.3341 
1475 2 5.14412 -2.75944 -5.52922 
543 1 -5.8789 -1.65121 -4.96814 
730 1 -5.05477 -1.00333 -5.35059 
972 1 -5.76281 -0.99314 -5.72851 
717 1 -5.01087 -1.27727 -4.42531 
1904 2 -4.688 -1.75777 -5.93905 
1635 2 -3.98742 -1.82865 -5.37624 
55 1 -4.1201 -0.796678 -4.99576 
1908 2 -3.12309 -1.33937 -5.41231 
1345 2 -2.31176 -1.18416 -5.12443 
1069 2 -1.61468 -1.22714 -4.84141 
11 1 -0.986565 -2.04602 -4.82557 
595 1 -0.241925 -1.59953 -5.04182 
8 1 0.531824 -1.24145 -5.19613 
674 1 -0.40797 -2.12134 -4.27233 
581 1 1.30682 -1.03666 -4.95977 
1380 2 1.68346 -1.93591 -5.11935 
2048 2 2.65215 -1.58763 -5.56761 
1317 2 2.59449 -1.06007 5.44428 
406 1 4.22042 -2.04451 -5.23138 
1363 2 3.35714 -1.34078 -4.95902 
1202 2 3.28194 -1.01423 5.9061 
1224 2 4.08366 -0.698059 -5.75567 
436 1 4.59386 -1.49955 5.81773 
1623 2 4.24329 -1.08262 -4.81718 
771 1 5.35572 -1.41446 -5.8641 
214 1 5.14123 -1.89075 -5.14426 
1615 2 -5.24365 0.0847463 -5.09702 
1343 2 -4.62302 0.433912 -5.47142 
1256 2 -4.49719 0.0899004 -4.61227 
2028 2 -3.59127 0.35525 -4.51101 
374 1 -3.3263 -0.384725 -5.31012 
701 1 -2.4916 -0.300487 -4.7556 
749 1 -2.41086 0.0300787 -5.53069 
37 1 -1.57832 0.462829 -5.23695 
1569 2 -1.12822 -0.712555 -5.30019 
789 1 -0.758328 0.636855 -5.1885 
1296 2 -0.335832 -0.63668 -4.69834 
1573 2 0.118178 -0.195304 -5.28894 
1537 2 -0.714766 -0.288458 5.90243 
1478 2 0.62778 -0.250542 -4.58979 
1852 2 0.987343 0.233719 -5.47402 
1975 2 1.80515 0.385541 -4.97954 
560 1 1.42273 -0.719845 -5.75785 
640 1 2.09892 -0.703211 -5.10967 
299 1 2.16619 -0.205491 -5.8014 
866 1 3.06318 -0.0527973 -5.45371 
818 1 3.91836 0.333827 -5.48096 
831 1 3.63797 0.59608 5.73985 
915 1 4.67685 0.389802 -4.90426 
960 1 4.56289 0.7974 -5.84129 
2001 2 4.88504 -0.45083 -5.41214 
1111 2 5.84408 -0.689997 -4.65211 
872 1 5.4929 0.601026 -4.82319 
1634 2 5.68159 -0.208733 -5.34962 
420 1 -5.64424 1.12243 -5.21131 
656 1 -4.75475 1.37731 -5.13761 
338 1 -5.60099 0.838 -4.29681 
1443 2 -3.66402 0.612802 -5.37602 
980 1 -3.98837 1.61577 -5.14672 
491 1 -4.30469 1.81397 -5.90201 
903 1 -3.22977 1.81069 -4.91224 
1050 2 -2.76759 0.924953 -5.21007 
1576 2 -2.0885 1.8006 -5.96959 
1643 2 -2.75567 0.614774 -4.27354 
1054 2 -1.98799 1.35163 -5.03114 
1364 2 -1.1937 1.54158 -4.73562 
1386 2 -1.27858 1.833 -5.60798 
842 1 -0.879186 0.809833 5.8009 
625 1 -0.0169103 0.992996 -5.31682 
895 1 0.846835 1.02141 -5.02416 
80 1 -0.0640135 1.24745 5.80574 
254 1 0.837373 1.41415 5.94139 
63 1 1.62074 1.62263 -5.71162 
760 1 1.52556 1.52981 -4.85649 
1785 2 1.92249 0.672587 -5.87032 
1910 2 2.7254 0.851998 -5.0166 
1180 2 2.72457 1.14938 -5.87484 
380 1 2.31593 1.97038 -5.26585 
1412 2 3.7164 1.02325 -4.43975 
1226 2 4.41336 1.69696 -5.64691 
1470 2 3.50152 1.33595 -5.39766 
1204 2 4.79038 2.07735 5.4655 
319 1 5.45856 0.879361 -5.60892 
1729 2 5.11204 1.68538 -4.89738 
1396 2 5.88949 2.1241 -4.94798 
1377 2 -4.87846 2.69967 -5.49719 
1654 2 -5.1673 2.30663 -4.8389 
1716 2 -4.16103 2.99291 -5.25012 
1482 2 -3.32122 3.17905 -5.25517 
820 1 -3.42917 2.0666 -5.70482 
1015 1 -2.44608 2.37129 -5.418 
719 1 -2.3695 2.1344 -4.57704 
494 1 -1.59177 2.71039 -5.32109 
301 1 -0.840845 2.92666 -5.08852 
1063 2 -0.415353 2.06735 -5.48558 
56 1 0.0745676 3.17115 -5.01271 
1639 2 0.457284 2.336 -5.47077 
1683 2 0.553845 2.17223 -4.66454 
1653 2 1.30597 2.514 -5.09634 
1628 2 1.93871 3.01047 -5.13924 
1979 2 2.87287 3.21234 -4.9138 
349 1 3.33636 2.57894 5.91959 
396 1 3.24662 2.15892 -5.10945 
204 1 4.07354 2.65013 -5.19579 
800 1 4.12369 2.93287 -5.95028 
1403 2 -5.73309 2.41548 5.95545 
445 1 5.00348 3.06241 -5.69592 
178 1 5.7966 3.18947 -5.33066 
984 1 4.89001 2.80301 -4.88499 
188 1 -5.30174 3.6996 -5.29417 
1618 2 -5.83799 4.41867 -4.82768 
83 1 -4.29205 4.34215 -5.75319 
989 1 -4.58217 3.89642 -5.18313 
607 1 -3.80384 4.01023 -4.95339 
45 1 -3.38968 4.55124 -5.50642 
1934 2 -2.58204 3.69134 -5.66079 
1620 2 -2.64981 3.4296 -4.88225 
1142 2 -1.85045 4.13487 -5.97057 
1877 2 -1.84259 3.71256 -5.03564 
1869 2 -1.13499 4.08148 -5.41821 
1824 2 -0.932677 3.71305 -4.50472 
383 1 0.347897 3.51161 -5.81817 
1336 2 -0.197925 4.38232 -5.37594 
72 1 -0.579186 3.29677 -5.7831 
710 1 0.931693 3.51477 -4.87714 
415 1 1.11698 3.92059 -5.62705 
950 1 1.84138 4.24454 -5.38441 
1130 2 2.85745 3.40822 -5.72136 
716 1 2.66577 4.35031 -5.0402 
1274 2 3.79229 3.62186 -5.23772 
1769 2 4.57392 3.88927 -5.05393 
2039 2 3.62619 3.4151 -4.43917 
1342 2 5.40024 4.14085 -5.29909 
1933 2 5.4378 4.53399 5.91846 
1073 2 4.43776 4.32305 5.85734 
412 1 -5.1164 5.89861 -4.93911 
1670 2 -5.65237 4.77798 -5.74368 
1640 2 -4.81831 5.07603 -5.31849 
1349 2 -4.02436 5.30415 -4.94621 
428 1 -2.5942 4.78327 -5.32701 
1757 2 -3.18638 5.49001 -4.9039 
1048 2 -3.12734 5.97036 -5.69368 
82 1 -2.18566 4.55443 -4.37487 
1413 2 -2.47095 5.73955 -4.87898 
729 1 -1.71227 4.88032 -5.1952 
123 1 -0.708794 5.36562 -5.01482 
135 1 -0.420721 5.76675 -5.78698 
1039 2 0.59688 4.82171 -5.27354 
17 1 0.149735 5.74979 -5.13951 
1032 2 1.3664 5.18991 -5.75602 
1437 2 2.25116 5.53518 -5.67413 
1875 2 3.08442 5.45259 -4.5599 
1846 2 3.01837 5.83746 -5.43004 
777 1 2.70426 4.57309 -5.88845 
486 1 4.3422 5.26743 -5.69303 
653 1 3.44503 4.69935 -4.88487 
407 1 -5.8707 5.48862 -4.96844 
318 1 5.18175 5.38066 -5.327 
1418 2 -5.62493 -5.64374 -3.3671 
1633 2 -4.96925 -4.95507 -4.55281 
1192 2 -4.73057 -5.15983 -3.7098 
473 1 -3.5355 -5.52092 -4.39895 
346 1 -3.60034 -5.91762 -3.58287 
1079 2 -3.93578 -4.94398 -3.21832 
825 1 -4.41203 5.83641 -3.79584 
255 1 -2.71773 -5.63355 -3.61599 
1008 1 -2.72071 -5.21867 -4.52114 
508 1 -1.99319 -5.43143 -3.45715 
333 1 -1.96059 -5.05975 -4.26738 
1571 2 -0.793932 -5.61202 -4.60681 
274 1 -1.13806 -4.6111 -4.68815 
1592 2 -0.942026 5.91369 -3.95309 
1486 2 0.184146 -5.17028 -4.72358 
1790 2 1.50585 -4.80993 -4.11326 
1737 2 0.701635 -5.1191 -3.92857 
64 1 1.87618 -5.92141 -4.2757 
1742 2 0.67364 -5.60811 -3.23067 
1013 1 2.53273 -5.502 -4.56208 
666 1 4.45342 -4.78886 -4.61847 
955 1 3.44645 -5.1964 -4.13533 
496 1 4.34602 -5.04515 -3.88743 
1425 2 4.76544 -5.92191 -4.25305 
1358 2 5.49295 -5.65035 -4.1518 
847 1 5.19185 -4.87151 -3.45865 
75 1 -5.04295 -3.85804 -4.00095 
1477 2 -4.27762 -4.60346 -4.25948 
483 1 -4.29481 -3.80437 -3.60594 
218 1 -3.58502 -3.38093 -3.76126 
1402 2 -2.20376 -3.83485 -4.6413 
1807 2 -3.47992 -4.52677 -3.954 
1106 2 -2.55836 -4.27962 -3.79378 
1711 2 -1.33084 -3.67241 -4.32964 
2009 2 -1.73787 -4.04382 -3.68443 
467 1 -0.234385 -4.22478 -4.69998 
1280 2 -0.851519 -3.75472 -3.37194 
328 1 -0.270624 -4.55778 -3.8665 
403 1 0.500451 -3.99389 -4.43701 
107 1 0.509291 -4.23482 -3.63687 
782 1 1.23536 -3.78962 -4.62808 
321 1 1.22767 -4.01607 -3.5911 
1836 2 2.23278 -4.33608 -4.64157 
1198 2 2.42564 -4.74709 -3.82332 
547 1 1.85563 -3.50986 -4.03665 
1521 2 3.27224 -4.18871 -3.78876 
1655 2 4.07583 -3.69921 -4.28446 
2002 2 5.0033 -3.56221 -4.0301 
817 1 -5.78468 -4.15255 -4.02246 
131 1 5.30755 -4.5509 -4.31177 
1201 2 5.70512 -3.21638 -3.82804 
1871 2 -5.45423 -2.63556 -4.37836 
1465 2 -4.56198 -2.42313 -4.1282 
1911 2 -5.4543 -2.8975 -3.57988 
2007 2 -4.41364 -2.76438 -3.17374 
991 1 -3.67636 -3.18513 -4.62572 
1271 2 -3.51566 -2.27571 -3.90394 
353 1 -2.69495 -2.97999 -4.25866 
599 1 -2.79733 -3.34734 -3.45019 
1086 2 -2.70925 -1.98971 -3.60471 
421 1 -1.46419 -2.58653 -4.45687 
236 1 -2.0226 -2.84772 -3.87448 
313 1 -1.07356 -2.75582 -2.78318 
1370 2 -0.574658 -3.4161 -4.19304 
1581 2 0.164465 -3.10575 -4.24617 
597 1 -0.922425 -2.54936 -3.66655 
1083 2 0.875817 -2.86839 -3.90142 
1401 2 1.65841 -2.43703 -3.54416 
1982 2 0.766834 -3.24317 -3.06099 
1259 2 2.40567 -2.21599 -3.83154 
277 1 2.64559 -3.24696 -3.97379 
1676 2 3.29645 -2.18974 -3.16366 
904 1 3.65652 -2.55814 -4.76706 
25 1 4.49774 -2.29194 -4.33841 
914 1 3.52931 -2.96032 -3.92675 
1937 2 5.7908 -2.95604 -4.64531 
740 1 5.38798 -1.96583 -4.22107 
205 1 -5.6492 -1.75886 -3.85708 
592 1 -4.81856 -1.56332 -3.61116 
58 1 -4.09702 -1.15108 -4.22838 
734 1 -4.0147 -1.62252 -3.20182 
505 1 -3.29625 -0.6869 -4.47636 
1682 2 -3.07835 -1.79345 -4.55739 
917 1 -3.30206 -1.12374 -3.52803 
1781 2 -1.78574 -1.8859 -3.4064 
1097 2 -2.28412 -1.60636 -4.30023 
1801 2 -1.4243 -1.48475 -3.99136 
2046 2 -0.962575 -1.55163 -3.24217 
1644 2 -0.69362 -0.967342 -4.06147 
35 1 0.504869 -1.6988 -4.33451 
367 1 0.676996 -1.75127 -3.58639 
768 1 1.2865 -1.33886 -4.06859 
427 1 2.04381 -1.2575 -3.43937 
1190 2 2.54748 -1.88332 -4.79199 
106 1 2.15988 -1.10704 -4.2363 
199 1 2.85557 -0.791472 -3.76607 
1167 2 4.01908 -1.42731 -3.76594 
1030 2 3.35205 -1.7693 -4.10885 
2036 2 4.06871 -1.84788 -2.89042 
2035 2 4.95626 -1.13256 -3.76363 
1436 2 5.79762 -0.792489 -3.78235 
1163 2 5.03279 -0.815986 -4.6824 
1212 2 -5.40396 -0.387756 -4.25841 
697 1 -5.77524 0.331384 -3.48021 
1830 2 -4.56264 -0.313889 -3.85612 
1184 2 -3.60586 -0.032696 -3.75898 
767 1 -2.46108 -0.603224 -3.94024 
1736 2 -2.85079 0.230564 -3.56344 
704 1 -1.65649 -0.0120847 -4.62357 
2022 2 -1.90826 0.523165 -3.45637 
799 1 -0.807345 0.212844 -4.35803 
419 1 -1.59114 -0.301316 -3.82344 
59 1 -0.817267 0.0441735 -3.5284 
1819 2 0.186622 -0.710774 -4.04225 
499 1 0.0150033 0.631268 -4.56911 
517 1 -0.0329007 0.327948 -3.54969 
1916 2 1.80101 -0.196084 -3.72674 
1143 2 1.04229 -0.49207 -3.70899 
1223 2 1.50745 -0.0236597 -4.44107 
464 1 0.794457 0.479762 -3.25802 
1517 2 2.6845 0.166367 -3.41201 
846 1 2.82182 -0.517008 -4.59158 
1963 2 2.4225 0.28047 -4.25862 
116 1 3.76019 -0.481501 -3.96291 
700 1 3.67862 -0.104731 -4.74299 
1456 2 3.29413 0.503612 -3.96222 
469 1 4.45077 -0.306937 -3.38324 
302 1 4.60141 -0.0993913 -4.13984 
109 1 5.5382 0.314267 -4.06403 
752 1 -4.86348 0.620579 -3.6581 
354 1 -4.68967 1.06093 -4.38344 
1986 2 -5.88358 1.76079 -4.11448 
1132 2 -4.99611 1.96744 -3.9935 
1858 2 5.95988 1.37272 -3.19499 
164 1 -3.84811 1.36641 -4.1763 
613 1 -4.00216 0.970585 -3.38686 
489 1 -3.06173 1.55938 -3.98705 
843 1 -2.29845 1.93758 -3.73021 
1550 2 -2.05268 0.942422 -4.15629 
1149 2 -1.18368 1.01967 -4.05113 
1187 2 -0.169528 1.71496 -4.62313 
1104 2 -0.215859 1.46396 -3.80012 
1310 2 0.638225 1.83272 -3.86894 
492 1 0.892596 0.884035 -4.22341 
594 1 1.96934 1.19043 -3.98841 
1838 2 1.31157 1.9986 -3.34255 
621 1 2.38201 1.70309 -4.54159 
894 1 3.11115 1.80391 -4.21737 
1011 1 2.71469 1.21622 -3.46418 
1172 2 4.37648 1.36099 -4.74893 
2008 2 4.45377 0.970176 -3.92558 
171 1 4.19218 1.84435 -3.3541 
1497 2 5.20966 1.41718 -4.14074 
1068 2 5.0133 1.17245 -3.33802 
772 1 -5.44141 3.18139 -4.53024 
26 1 -5.66835 2.84142 -3.79045 
1485 2 -4.34217 2.47667 -4.61664 
369 1 -4.79409 3.04596 -3.54803 
1728 2 -3.45577 2.78714 -4.53197 
1938 2 -4.29696 2.18548 -3.60279 
1794 2 -3.41124 2.48154 -3.61515 
1625 2 -2.72165 3.10363 -4.21108 
1607 2 -2.58932 2.7297 -3.18929 
208 1 -1.42203 2.00772 -3.64705 
561 1 -1.48779 2.4179 -4.43998 
134 1 -0.730115 2.07724 -3.30227 
115 1 -0.686032 2.69608 -4.13055 
397 1 0.18727 2.93009 -4.1819 
1506 2 1.46159 2.33815 -4.16661 
379 1 0.891325 2.95821 -3.00583 
2020 2 2.08094 2.71766 -4.44586 
1214 2 2.85986 2.77491 -4.00698 
1158 2 2.22847 2.26235 -3.59597 
1999 2 3.64405 2.97093 -3.67372 
1562 2 4.55275 3.32703 -3.55107 
702 1 3.89358 2.13517 -4.32964 
676 1 5.59266 3.01255 -4.58866 
869 1 5.51363 2.56477 -3.83124 
726 1 4.62314 2.54027 -4.16725 
1333 2 -5.68406 4.10649 -4.01047 
1275 2 -4.91914 4.3216 -3.67443 
1575 2 -5.12442 4.63504 -4.50058 
797 1 -4.71363 3.56644 -4.35973 
446 1 -3.90075 3.71391 -4.12019 
250 1 -3.06056 4.4044 -4.62849 
340 1 -3.10754 3.92763 -3.84962 
86 1 -2.40706 4.13691 -3.54023 
612 1 -2.02743 3.92935 -2.80701 
1175 2 -1.90835 3.422 -4.20063 
1268 2 -1.1209 3.59805 -3.7481 
1354 2 -0.217221 4.21391 -4.56307 
1926 2 -0.201321 3.79807 -3.66447 
1183 2 0.669387 4.01745 -3.60102 
310 1 1.05822 3.18424 -3.86529 
1304 2 0.603327 4.43174 -4.50775 
510 1 1.7759 3.75523 -4.45285 
1847 2 1.42323 4.57263 -4.07984 
885 1 1.93932 3.3788 -3.69381 
709 1 2.55229 4.01547 -4.31284 
884 1 2.62968 3.7379 -3.55469 
256 1 3.2598 4.3527 -4.13354 
835 1 3.40271 3.96623 -3.31453 
1439 2 4.52686 3.61013 -4.30889 
662 1 4.07549 4.47194 -4.01587 
1971 2 5.42837 4.04996 -4.41562 
435 1 -5.11635 5.52939 -3.99324 
579 1 6.00719 5.33084 -4.11485 
1957 2 -4.03731 4.49998 -3.28449 
1038 2 -4.3396 4.80613 -4.2733 
1353 2 -3.5148 5.06921 -4.01971 
1329 2 -3.26638 4.75479 -3.08958 
1236 2 -2.68454 5.35846 -4.06244 
568 1 -1.44223 4.77205 -4.40647 
1335 2 -1.81227 5.63951 -3.91139 
495 1 0.0660665 5.29444 -4.27283 
628 1 -0.672783 4.89221 -4.05212 
1193 2 1.2677 4.86177 -4.94053 
575 1 0.963904 5.84259 -4.48249 
564 1 0.937732 5.50349 -3.74825 
442 1 1.90015 5.85676 -3.45722 
1823 2 2.19658 5.26739 -4.99672 
1667 2 2.30696 5.04056 -4.20529 
1955 2 3.01767 5.20872 -3.73394 
48 1 4.24264 4.70778 -4.84452 
1704 2 3.92175 5.66529 -4.35503 
1691 2 3.9328 5.39214 -3.58247 
443 1 5.01235 4.68825 -3.77499 
699 1 5.08521 4.99799 -4.52949 
775 1 5.73087 4.84871 -3.24583 
1394 2 5.50345 5.92026 -3.08322 
1197 2 -4.731 -5.45313 -2.92118 
1285 2 -5.48141 -5.92023 -2.62159 
130 1 -5.89873 -4.94813 -2.57886 
1454 2 -4.01992 -5.34743 -2.50698 
1047 2 -3.17942 -5.07117 -2.30349 
295 1 -2.64694 -5.94373 -2.68019 
260 1 -1.88329 -5.66652 -2.54263 
805 1 -1.10589 -4.91194 -3.92936 
453 1 -1.23131 -5.19211 -3.19948 
413 1 -0.437334 -5.0224 -2.81243 
5 1 -0.252545 -5.17681 -1.8606 
661 1 0.506617 -4.7734 -1.96312 
1747 2 0.900762 -5.69346 -2.34626 
1678 2 1.53622 -5.14705 -3.34512 
1319 2 1.5688 -5.29449 -2.33402 
180 1 2.78698 -5.62893 -3.57415 
1887 2 2.42419 -5.22145 -2.25622 
1082 2 2.43572 -4.85666 -2.96438 
1563 2 3.20176 -5.04404 -2.11419 
422 1 3.64823 -5.53469 -3.27412 
284 1 4.4803 -5.40548 -3.08064 
586 1 4.78807 -5.5299 -2.08342 
461 1 3.92023 -5.70261 -2.17938 
798 1 5.12243 -5.05229 -2.62875 
339 1 -5.88597 -4.57389 -3.38428 
246 1 -5.14754 -4.32071 -3.16936 
542 1 -5.10591 -4.63027 -2.32875 
1767 2 -5.66911 -3.78583 -2.16203 
411 1 -4.3884 -4.18232 -2.76697 
153 1 -4.26409 -4.65104 -2.00345 
524 1 -3.39327 -3.83008 -2.83772 
21 1 -2.69314 -3.59499 -2.54879 
1783 2 -3.12914 -4.71334 -3.19389 
1843 2 -2.30226 -4.52923 -2.97937 
1531 2 -1.49595 -4.20996 -2.75566 
71 1 -1.8318 -3.44137 -2.29039 
1896 2 -0.700716 -4.01667 -2.53047 
1878 2 0.0718859 -3.71503 -2.37327 
326 1 0.317204 -4.5601 -2.89474 
938 1 1.11559 -4.33119 -2.83083 
1848 2 0.958046 -3.47738 -2.23755 
1844 2 3.22574 -4.65674 -3.01103 
471 1 2.09239 -3.85989 -3.30326 
245 1 2.06817 -3.99529 -2.45803 
1001 1 2.95014 -3.91277 -2.34187 
1765 2 4.11458 -4.16676 -3.40589 
1928 2 3.94579 -4.53311 -2.52849 
296 1 3.80127 -3.16374 -3.0746 
1240 2 5.8766 -3.6491 -2.91172 
1194 2 5.0336 -3.94675 -3.31607 
1409 2 4.66829 -4.1659 -2.52695 
1530 2 5.53506 -4.09662 -2.23585 
66 1 -5.69544 -2.19001 -3.00594 
1657 2 -5.21079 -3.32669 -2.9166 
213 1 -5.42581 -2.40068 -2.24379 
833 1 -4.58175 -2.21778 -1.8241 
1664 2 -4.66714 -3.21499 -2.39834 
1817 2 -3.76609 -2.98898 -2.39575 
1745 2 -3.40143 -2.44511 -3.01478 
1808 2 -2.59689 -2.46691 -2.76789 
1052 2 -2.99785 -2.70888 -2.08693 
1391 2 -1.77092 -1.99079 -2.58754 
664 1 -1.8416 -3.0696 -3.1158 
753 1 -1.04577 -3.12874 -2.02514 
1645 2 -0.0793353 -3.43511 -3.19282 
388 1 -0.281823 -2.54811 -2.84215 
1006 1 -0.10096 -2.18415 -3.59208 
657 1 -0.189122 -2.89021 -1.90452 
526 1 0.558823 -2.53055 -1.77142 
573 1 0.512799 -2.23771 -2.64073 
1894 2 1.46004 -3.03177 -3.08837 
1066 2 1.73218 -2.9659 -2.18118 
999 1 2.89675 -3.35227 -3.20012 
1263 2 2.38253 -2.56583 -2.95052 
1973 2 3.54345 -2.33477 -2.32262 
1350 2 4.35853 -2.17221 -2.15502 
602 1 4.4217 -2.64493 -3.54441 
609 1 5.26879 -2.41949 -3.49495 
1498 2 -5.33851 -0.697423 -3.34561 
1876 2 -5.26874 -1.05601 -2.48002 
161 1 -4.85705 -1.88891 -2.66439 
722 1 -3.93632 -1.81886 -2.37721 
630 1 -2.34137 -0.974127 -3.24807 
275 1 -3.29034 -1.51442 -2.58172 
285 1 -2.53583 -1.29617 -2.30298 
1870 2 -0.882074 -1.76822 -2.49711 
117 1 -1.85593 -1.15477 -1.93328 
449 1 -1.50127 -0.781985 -2.98448 
1235 2 0.109761 -1.37998 -2.39984 
1057 2 -0.275668 -1.1629 -3.284 
1659 2 0.989642 -0.881618 -2.15319 
287 1 1.36044 -1.68904 -3.02972 
1113 2 0.525058 -0.887855 -3.01154 
1777 2 2.74227 -0.445912 -1.8135 
334 1 2.82895 -1.16338 -2.9608 
215 1 2.28648 -1.62738 -2.51346 
715 1 3.63969 -0.794099 -3.11896 
377 1 3.469 -1.15535 -2.20514 
692 1 4.41863 -0.715116 -2.4446 
1346 2 5.87955 -1.278 -2.86494 
1110 2 4.84846 -1.4824 -3.02899 
689 1 -4.94948 0.390413 -2.78936 
190 1 -5.89466 -0.0604588 -2.72141 
1589 2 -4.52126 -0.663557 -3.01665 
1962 2 -4.47072 -0.832616 -2.15498 
1834 2 -3.64517 -0.43552 -2.89187 
1514 2 -3.64922 -0.586237 -1.97369 
1761 2 -2.82055 -0.329559 -2.6914 
1507 2 -2.0148 0.241036 -2.66196 
750 1 -0.515821 -0.25129 -2.66141 
2043 2 -1.16656 0.520934 -2.4931 
898 1 0.19534 0.0454367 -2.71527 
1796 2 1.43765 -0.632856 -2.86197 
963 1 0.943036 0.23577 -2.47195 
783 1 1.71807 0.467814 -2.35023 
1360 2 2.21429 -0.125988 -2.82369 
2027 2 3.21426 0.0899527 -2.58508 
1673 2 3.65956 0.353703 -3.19438 
1953 2 4.45234 0.565536 -2.80676 
1952 2 3.8909 -0.0462921 -2.07675 
876 1 5.23146 -0.422998 -2.52155 
691 1 5.30197 0.0488974 -3.20412 
654 1 5.84627 -0.467453 -1.83033 
1229 2 -4.87998 1.36222 -2.30061 
1512 2 -5.14684 1.5361 -3.1799 
32 1 -4.15358 0.400013 -2.58094 
1776 2 -3.84221 1.58705 -2.06852 
1520 2 -4.29011 1.83477 -2.86247 
982 1 -3.20411 1.12484 -3.14648 
686 1 -3.22278 0.783145 -2.39536 
585 1 -2.38381 1.31144 -3.05972 
259 1 -2.4439 1.12177 -2.28669 
614 1 -1.57958 1.65958 -2.72706 
1893 2 -1.03235 0.963848 -3.16315 
307 1 -1.65098 1.32528 -1.94058 
919 1 -0.681911 1.81437 -2.36174 
1067 2 -0.35664 0.720003 -2.1412 
1340 2 -0.194213 1.1616 -2.97498 
1860 2 0.618729 1.50228 -3.03137 
1297 2 0.462047 1.23439 -2.18597 
50 1 1.52844 0.810711 -3.25079 
1642 2 1.22007 1.65164 -2.40551 
1967 2 2.03884 1.94455 -2.57794 
874 1 3.21481 1.21547 -2.64299 
1021 1 2.40383 1.01855 -2.75763 
731 1 3.46466 1.63089 -3.50764 
381 1 4.11023 1.46378 -2.49465 
1861 2 5.29115 0.807454 -2.44107 
1724 2 -5.77002 1.19893 -2.35235 
104 1 4.87731 1.87772 -2.49997 
232 1 4.85996 2.32497 -3.27101 
7 1 5.68218 2.13813 -2.19989 
631 1 -5.24888 2.55406 -2.88093 
194 1 -4.52506 2.91038 -2.71416 
2038 2 -3.50958 2.12843 -2.75816 
966 1 -3.66939 3.16975 -2.52711 
460 1 -3.93083 3.28574 -3.26455 
1415 2 -2.74614 2.14269 -2.42229 
323 1 -2.96394 3.05033 -1.81656 
1476 2 -1.83722 3.11141 -3.35925 
1959 2 -1.96784 2.47875 -2.47547 
1107 2 -1.18573 2.8181 -2.24813 
1756 2 -1.00374 3.13003 -2.98146 
896 1 0.0657219 2.49881 -3.26012 
143 1 0.0373625 2.28267 -2.32788 
124 1 1.64606 3.0497 -2.99242 
828 1 0.819589 2.55394 -2.27151 
478 1 1.75166 2.74563 -2.16269 
1786 2 2.81878 2.12037 -1.97218 
1461 2 2.8441 2.27354 -3.04534 
1522 2 3.69925 2.59929 -2.87309 
1330 2 4.50407 3.07653 -2.6924 
1866 2 3.68964 2.23981 -2.10943 
811 1 5.81998 2.35141 -3.01468 
1026 2 5.44048 3.30042 -2.76572 
1636 2 -5.73924 3.5905 -3.1464 
1276 2 -5.68169 3.45145 -2.3629 
1825 2 -5.09852 3.93427 -2.9487 
1669 2 -4.32502 4.08148 -2.58106 
1419 2 -3.38556 4.26047 -2.37778 
276 1 -3.02085 3.6345 -3.06152 
520 1 -2.48472 3.61631 -2.22699 
111 1 -1.50147 4.59994 -3.49509 
733 1 -1.19939 4.19874 -2.73767 
1689 2 -0.316493 3.52362 -2.83017 
266 1 -0.463245 4.61963 -2.46353 
1372 2 0.436921 3.81166 -2.78538 
836 1 0.509962 4.82677 -2.6357 
1161 2 1.42335 4.33667 -3.33424 
1071 2 1.36389 4.05747 -2.48578 
742 1 2.58493 3.19889 -2.7302 
1668 2 2.15773 4.66115 -3.26302 
2040 2 2.19971 4.18881 -2.33912 
1981 2 2.90619 4.57373 -2.00527 
183 1 3.35159 3.60691 -2.50287 
394 1 4.10822 4.30419 -3.10462 
580 1 4.20908 3.83307 -2.20812 
1994 2 5.43655 3.72662 -3.64153 
448 1 4.91644 4.3756 -2.89985 
650 1 5.13482 4.22624 -2.23227 
918 1 -5.22768 5.12976 -3.1673 
552 1 -5.23758 4.75918 -2.39991 
1534 2 -5.64718 5.50772 -1.79048 
993 1 -3.5367 5.70744 -2.76484 
262 1 -4.43998 5.40168 -3.08765 
342 1 -4.44749 5.18393 -2.40889 
119 1 -3.72622 5.2932 -2.03925 
1287 2 -2.41184 4.78307 -2.30587 
1334 2 -2.54234 5.04535 -3.14524 
1348 2 -1.66603 5.3261 -3.03057 
1339 2 -1.5608 4.86779 -2.18107 
1338 2 -0.932537 5.72807 -3.19364 
1880 2 -0.761266 5.52648 -2.42604 
1429 2 -0.20061 -5.66898 -4.00568 
720 1 -0.552242 4.75319 -3.316 
1818 2 -0.0160896 5.9412 -3.19852 
503 1 0.206746 4.95809 -3.4989 
652 1 1.35275 5.37405 -2.81038 
648 1 2.30881 5.79847 -2.77147 
425 1 3.16333 5.97026 -2.60227 
1093 2 2.8539 4.74781 -2.8987 
1244 2 3.66818 5.12352 -2.76782 
1489 2 4.79006 5.59803 -3.56671 
432 1 5.87926 4.47286 -2.55255 
1593 2 4.54645 5.419 -2.59994 
1312 2 5.48396 5.49091 -2.33605 
864 1 -4.59319 -4.93642 -1.22455 
988 1 5.81979 -5.70933 -0.969185 
1822 2 -4.85951 -5.90769 -1.94942 
452 1 -5.29676 -5.09753 -1.56481 
1292 2 -3.8546 -5.64621 -1.73144 
1782 2 -3.34689 -5.81546 -0.876592 
1613 2 -2.26937 -4.839 -2.16055 
1404 2 -3.09442 -5.33263 -1.46221 
1582 2 -2.30263 -5.11734 -1.31748 
1209 2 -1.53714 -4.93786 -0.801227 
1932 2 -0.694331 -4.60427 -0.864605 
934 1 -1.08437 -5.39227 -2.35756 
147 1 -0.429096 -5.61946 -1.06113 
459 1 0.369844 -5.23221 -1.10574 
497 1 -0.412639 -5.85301 -0.280316 
317 1 1.12726 -4.89691 -1.13145 
1081 2 1.51007 -5.78661 -1.40301 
1864 2 2.3252 -5.55106 -1.44244 
1199 2 3.12501 -5.20937 -1.2138 
1019 1 2.04611 -4.61558 -1.06439 
1749 2 3.90127 -4.82983 -1.66496 
142 1 5.77025 -5.25304 -1.8077 
65 1 4.96414 -5.87189 -1.08457 
1487 2 4.48736 -4.99096 -1.03619 
1217 2 -5.48135 -4.114 -1.2074 
1131 2 -4.63771 -3.95865 -0.839377 
366 1 -3.48083 -4.06346 -1.94789 
182 1 -3.72269 -4.56779 -1.12059 
1400 2 -4.67431 -3.6554 -1.56716 
1545 2 -3.90952 -3.61756 -0.829315 
46 1 -2.64338 -3.97625 -1.7111 
248 1 -2.88242 -4.29346 -0.945945 
324 1 -1.92888 -4.06186 -0.616027 
1327 2 -1.48246 -4.65991 -1.71128 
890 1 -1.92556 -3.7318 -1.48267 
51 1 -1.05831 -3.57183 -1.15085 
986 1 -1.16132 -3.74021 -0.34104 
1753 2 0.0915894 -4.28191 -0.677724 
1802 2 -0.579597 -4.24054 -1.76647 
1246 2 0.263817 -3.8867 -1.46942 
569 1 1.4751 -4.41542 -1.82073 
1051 2 0.917612 -4.00765 -0.591441 
1580 2 1.01578 -3.59617 -1.34247 
1698 2 1.82144 -3.44679 -1.30919 
249 1 2.45377 -4.25436 -1.61662 
140 1 3.42004 -3.94345 -1.47172 
100 1 2.90031 -4.40967 -0.75699 
754 1 3.78061 -3.57435 -2.13712 
550 1 4.46286 -3.48142 -1.61733 
291 1 5.16313 -3.11834 -1.76506 
1859 2 4.75643 -4.42463 -1.63039 
2017 2 5.58057 -4.33173 -1.2677 
562 1 5.32312 -3.34899 -0.927767 
968 1 -5.01509 -2.7795 -1.23537 
636 1 -5.97375 -2.81462 -1.62877 
928 1 -5.78485 -3.32644 -0.764934 
1924 2 -3.90712 -3.1268 -1.55144 
683 1 -4.15942 -2.17032 -1.08769 
948 1 -3.40909 -2.11214 -0.764862 
219 1 -3.53588 -1.82659 -1.66636 
1505 2 -2.15143 -2.34512 -1.86962 
1442 2 -3.08966 -3.06876 -1.3054 
1216 2 -2.31702 -2.92414 -1.16763 
1459 2 -1.37484 -2.2888 -1.6665 
1121 2 -1.61616 -2.67819 -0.94816 
677 1 -0.173157 -3.10472 -1.13785 
1449 2 -0.488419 -1.92387 -1.65523 
1416 2 -0.755928 -2.1786 -0.849905 
830 1 0.588305 -2.74251 -0.917267 
211 1 1.30197 -1.84006 -2.19949 
705 1 1.48225 -2.32403 -1.43403 
1991 2 2.77089 -3.07878 -1.33204 
566 1 2.51688 -1.97559 -1.65487 
1457 2 2.60473 -2.76672 -2.2207 
1754 2 4.56675 -2.27722 -1.26041 
137 1 4.69667 -3.12263 -2.68819 
1123 2 4.29787 -2.94634 -0.217758 
1533 2 3.63851 -2.59691 -1.60302 
1326 2 3.81367 -3.01267 -0.788473 
784 1 5.53449 -2.80815 -2.50647 
1978 2 5.38379 -2.05343 -1.28193 
1972 2 5.8948 -1.48736 -1.93226 
1641 2 -5.06765 -1.40969 -1.65437 
2005 2 -5.48305 -1.94204 -0.404623 
1760 2 -4.12535 -1.0654 -1.28257 
447 1 -2.70507 -1.56687 -1.56005 
548 1 -1.89289 -1.32614 -1.09223 
99 1 -2.59303 -1.93469 -0.762547 
757 1 -1.06404 -1.08916 -1.29542 
1827 2 0.492267 -1.504 -1.57827 
588 1 -0.255774 -0.938701 -0.946899 
1568 2 2.08548 -0.707449 -2.21312 
1177 2 1.56673 -1.1585 -1.35977 
1493 2 2.4252 -0.978614 -1.20245 
839 1 3.24819 -1.56989 -1.57166 
518 1 4.14306 -1.13144 -1.73201 
125 1 3.89094 -1.46483 -0.908924 
1279 2 5.22191 -1.87403 -2.36058 
222 1 4.73837 -1.25031 -0.895583 
958 1 4.92027 -0.96174 -1.65748 
1028 2 -5.76213 -1.90617 -1.34084 
962 1 5.57495 -0.855693 -1.03311 
241 1 -5.18712 -0.0561168 -2.10679 
230 1 -5.17997 -0.47385 -1.32165 
900 1 -4.43291 -0.190421 -0.969765 
1680 2 -5.81732 0.308448 -0.808172 
297 1 -4.4605 0.187003 -1.76171 
278 1 -3.63688 0.41916 -1.63245 
921 1 -3.47455 0.0313171 -0.560961 
1206 2 -3.34458 -0.811595 -1.16046 
1098 2 -2.75173 -0.312185 -1.78437 
1323 2 -2.18716 -0.524286 -0.983714 
488 1 -2.58403 0.406288 -0.593983 
1432 2 -1.88504 0.0117474 -1.83954 
160 1 -1.03181 -0.72483 -2.19243 
1128 2 -0.837386 0.41086 -1.54903 
1371 2 -1.36113 -0.183458 -0.824866 
615 1 -0.237722 -0.512334 -1.71114 
870 1 0.543178 -0.574842 -0.79227 
1735 2 0.0278451 0.713139 -1.32175 
1213 2 0.338236 0.487333 -0.537096 
601 1 0.606706 -0.228813 -1.62451 
776 1 1.55461 -0.0279298 -1.59234 
886 1 1.53885 -0.344683 -0.652082 
90 1 2.44739 0.640525 -1.85302 
1832 2 3.11988 -0.810919 -0.678806 
243 1 2.30673 0.185336 -0.991084 
858 1 3.23869 0.550932 -1.06023 
1282 2 4.69679 0.361221 -1.98273 
1696 2 3.54095 -0.425789 -1.39626 
1502 2 4.27334 -0.0419442 -1.20143 
2030 2 5.04301 0.0822197 -1.1347 
1720 2 -5.35873 0.891148 -1.57913 
1672 2 -4.32519 1.23991 -1.35621 
1305 2 -3.4982 1.46459 -1.01768 
1170 2 -2.68633 1.75763 -0.83659 
189 1 -2.6623 0.738418 -1.40711 
1622 2 -1.85721 1.93141 -0.60557 
1839 2 -3.03872 1.87868 -1.76196 
94 1 -1.92187 0.913326 -1.24386 
192 1 -0.984417 1.68685 -1.65565 
910 1 -0.922582 1.24455 -0.977361 
76 1 -0.0436689 1.91348 -1.64449 
240 1 -0.0644061 1.62533 -0.849356 
1811 2 1.14109 1.22691 -1.74167 
1726 2 1.17804 0.732753 -1.01714 
1681 2 2.08405 1.57221 -1.72249 
937 1 0.798503 1.67763 -0.752095 
1712 2 1.98921 1.11186 -0.822992 
1874 2 2.81942 1.64888 -1.30371 
1205 2 2.88033 1.33683 -0.470788 
16 1 3.22258 0.951436 -1.88108 
231 1 4.03005 1.10254 -1.76504 
1718 2 3.64405 1.9757 -1.40265 
1803 2 5.57251 0.412886 -1.67886 
1017 1 4.86488 1.4892 -1.51395 
944 1 5.81376 1.67743 -1.49948 
557 1 4.85025 1.10789 -0.716636 
761 1 -5.45558 2.28514 -2.07479 
1278 2 -5.78693 2.91912 -1.2809 
110 1 -5.38356 1.90458 -1.04887 
1368 2 -4.77451 2.99922 -0.473007 
926 1 -4.56381 2.56508 -1.94822 
298 1 -3.79091 2.72981 -1.6093 
69 1 -4.57582 2.22826 -1.1741 
2021 2 -2.08221 2.07644 -1.61154 
696 1 -2.9395 2.67798 -1.02604 
778 1 -2.00745 2.86769 -0.208465 
879 1 -1.53338 3.40247 -0.813027 
1092 2 -1.30416 2.4773 -1.2973 
1406 2 -1.00982 2.38367 -0.303449 
1616 2 -0.43605 2.99996 -1.99844 
1428 2 -0.481269 2.70568 -1.11636 
1405 2 0.426222 3.10789 -1.12605 
747 1 0.814771 2.27505 -1.38512 
1917 2 1.29664 3.39799 -0.880236 
114 1 1.73614 2.57915 -1.34304 
34 1 2.62108 2.97522 -1.88735 
786 1 2.64565 2.71788 -1.01879 
582 1 3.31324 2.98956 -0.950173 
1065 2 4.53692 2.73786 -1.8989 
1977 2 4.34009 2.34333 -1.07821 
1527 2 5.32585 2.88221 -1.78849 
1328 2 5.19543 2.53848 -0.964106 
1399 2 -4.91267 3.66994 -1.94328 
679 1 -4.46919 4.35946 -0.609908 
370 1 -5.75634 4.43227 -1.66781 
1960 2 -5.03349 3.2532 -1.29424 
1325 2 -3.87437 3.80846 -1.66187 
1056 2 -3.98931 3.47319 -0.897398 
1601 2 -2.88728 4.20469 -1.54773 
132 1 -3.69322 4.77123 -0.460485 
418 1 -2.20938 3.05177 -1.21473 
1155 2 -3.19021 3.75748 -0.820715 
1344 2 -2.0884 4.57313 -1.43334 
1105 2 -2.42783 4.08284 -0.758645 
165 1 -1.62126 3.66925 -1.82408 