ITEM: TIMESTEP
7600
ITEM: NUMBER OF ATOMS
2048
ITEM: BOX BOUNDS pp pp pp
-5.9439971281828550e+00 5.9439971281828550e+00
-5.9439971281828550e+00 5.9439971281828550e+00
-5.9439971281828550e+00 5.9439971281828550e+00
ITEM: ATOMS id type x y z 
1661 2 5.49821 -4.85897 5.96409 
1849 2 -5.4658 -4.45543 -5.90295 
407 1 -5.57688 -5.94136 -5.22681 
1192 2 -5.02031 -4.72993 -4.76284 
825 1 -4.56579 -5.81375 -4.69659 
554 1 -3.51886 -4.84287 -5.80463 
14 1 -3.84193 -5.29753 -5.08431 
3 1 -2.74098 -4.55601 -5.75156 
1138 2 -2.27466 -5.55228 -5.92408 
91 1 -2.26695 -4.76056 -5.06951 
530 1 -1.99226 -4.15698 5.7629 
1291 2 -1.76229 -5.77773 -5.16782 
247 1 -1.81261 -4.94676 -4.47226 
1746 2 -0.537484 -5.25754 -5.06933 
2029 2 -0.478725 -4.83843 -5.97412 
1709 2 0.365511 -4.89753 -5.17863 
135 1 0.777065 -5.64654 -5.69079 
857 1 1.6141 -5.69415 -5.07244 
434 1 2.3694 -5.26893 -5.44066 
723 1 3.28533 -5.08685 -4.83805 
931 1 2.45586 -4.80091 5.53458 
1677 2 4.50837 -5.37181 -5.70401 
131 1 4.14526 -4.66901 -4.55683 
1846 2 3.87683 -5.87154 -5.23881 
1799 2 5.07424 -5.24056 -5.2615 
1604 2 5.42942 -5.39842 -4.56622 
1272 2 -5.85628 -4.95348 -5.1471 
273 1 -5.02111 -3.29776 -5.33062 
1633 2 -4.62326 -4.24069 -5.4626 
878 1 -5.158 -3.6069 -4.535 
1548 2 -3.79046 -3.96109 -5.40894 
1663 2 -2.9374 -3.88985 -4.97301 
1046 2 -2.70002 -3.43284 -5.69681 
1452 2 -2.1331 -3.76286 -4.66401 
1602 2 -1.25862 -3.42186 -4.44179 
902 1 -1.09955 -4.51582 -4.68178 
855 1 -1.5839 -4.33637 -5.49654 
202 1 0.891092 -3.42003 -5.77948 
924 1 0.331373 -3.77222 -5.34044 
1790 2 1.43256 -4.49163 -5.58044 
1694 2 0.563392 -4.54074 5.79129 
1705 2 2.0907 -3.86856 5.77557 
1466 2 2.26881 -4.18641 -5.38898 
1198 2 2.13714 -4.48245 -4.57285 
1483 2 3.12331 -3.76112 -5.61078 
809 1 3.16836 -4.84287 -5.76945 
429 1 3.95585 -4.50277 -5.55426 
19 1 4.83813 -4.26861 -5.01145 
817 1 5.05149 -3.8944 -5.81572 
1588 2 -4.88644 -1.92148 -5.48191 
1937 2 -5.65784 -2.4499 -4.90229 
373 1 -4.79512 -2.82953 5.90969 
269 1 -3.86124 -2.67984 -5.90626 
991 1 -4.13907 -3.10684 -5.12928 
353 1 -3.23963 -2.60975 -5.29842 
391 1 -2.07837 -2.06272 -5.69567 
402 1 -2.4347 -2.55763 -4.82803 
1379 2 -0.327856 -3.08266 -4.97199 
151 1 -1.38124 -2.13505 -5.02386 
1231 2 -1.1189 -3.10584 -5.41589 
1763 2 0.626626 -2.69051 -4.98461 
1255 2 -0.18788 -2.65257 -5.66357 
819 1 1.20551 -3.57971 -4.96713 
1909 2 0.824212 -2.2262 -5.83468 
694 1 1.98034 -3.41005 -4.71394 
975 1 2.14411 -2.39384 -5.96354 
475 1 2.82596 -2.76545 -5.35 
471 1 2.71225 -2.99031 -4.65387 
1129 2 3.9604 -3.31848 -5.60672 
939 1 3.57715 -2.27439 -5.4334 
904 1 4.2621 -2.26853 -4.93114 
277 1 3.52746 -2.61869 -4.51404 
1070 2 5.54587 -2.60869 -5.4945 
2032 2 5.51444 -3.00402 -4.65008 
1475 2 4.69356 -3.02496 -5.41138 
1382 2 5.36482 -2.4489 5.53406 
55 1 -4.41695 -0.566082 -5.25943 
214 1 -5.12432 -1.06702 -5.00626 
1341 2 -3.99648 -1.62637 -5.58747 
1733 2 -2.89178 -1.40563 -5.36678 
505 1 -3.78703 -0.683385 -4.5701 
848 1 -4.4633 -1.05554 -4.37141 
1271 2 -2.91045 -1.75697 -4.17773 
1908 2 -2.31082 -1.47201 -4.72417 
1569 2 -1.50325 -1.24765 -4.81872 
1635 2 -2.04199 -1.72222 -3.7486 
595 1 -0.402467 -1.92163 -5.01149 
35 1 0.412831 -1.43162 -5.42081 
8 1 1.10723 -1.13683 -4.97934 
1964 2 2.27024 -1.44481 5.95096 
578 1 1.00859 -0.7891 -5.92968 
2048 2 3.41204 -1.47406 -4.68377 
1190 2 2.16997 -1.7166 -4.99782 
1224 2 4.67701 -0.47798 -5.89316 
1363 2 3.98032 -0.781016 -5.39261 
1202 2 3.15559 -0.990692 5.76358 
1623 2 4.80905 -0.867017 -4.84535 
25 1 5.12572 -1.80719 -5.19816 
308 1 4.35405 -1.72517 -5.73954 
771 1 5.83999 -1.2129 -5.55614 
1615 2 5.59743 0.111288 5.64525 
2001 2 5.87544 -0.371957 -4.52079 
1830 2 -5.74002 -0.0981683 -5.30855 
2028 2 -4.6524 0.33094 -5.05641 
1184 2 -4.10241 0.122593 -4.2863 
932 1 -3.63989 -0.18735 -5.73695 
1643 2 -3.68134 0.570454 -5.10782 
749 1 -2.08312 -0.288538 -4.58391 
701 1 -2.85123 -0.676825 -4.33288 
374 1 -2.31759 -0.0161736 -5.49515 
234 1 -1.5152 0.173481 -5.0525 
212 1 -1.3645 0.601485 -5.82815 
1478 2 0.0881408 -0.49724 -4.77287 
1573 2 0.453989 -0.10926 -5.54959 
1867 2 -0.738579 -0.874724 -4.77096 
1572 2 -0.24933 -0.445251 -5.61539 
1963 2 1.52055 0.704169 5.87039 
1223 2 1.32981 0.19065 -5.23176 
31 1 1.72466 -0.769016 -5.38612 
640 1 2.5027 -0.549199 -4.99025 
560 1 2.4572 -0.299117 -5.88085 
866 1 3.17104 -0.0936761 -5.33553 
846 1 3.29463 -0.364022 -4.4658 
700 1 4.20863 0.816929 5.53216 
116 1 4.17559 0.335913 -5.41442 
1634 2 5.32916 -0.251165 -5.37903 
302 1 5.03131 0.863404 -5.67165 
915 1 5.7914 0.888745 -4.96022 
338 1 -4.53358 1.44923 -4.89177 
420 1 -5.2721 1.21201 -5.28815 
1256 2 -3.48807 0.954273 5.91815 
656 1 -4.74279 1.80203 -5.90235 
980 1 -3.67403 1.55307 -4.75047 
752 1 -3.99427 1.80269 -5.53157 
1443 2 -2.74678 0.997021 -5.46473 
1576 2 -1.7333 1.34824 -5.26554 
1165 2 -1.0185 1.66989 -5.50994 
365 1 -0.985978 1.12768 5.49669 
827 1 -0.657901 0.48358 -5.30705 
842 1 0.321448 0.84097 -5.17593 
408 1 1.14663 1.27627 -5.26644 
895 1 1.84455 1.71184 -5.20145 
1180 2 1.8813 0.326599 -4.62533 
380 1 2.66865 1.77089 -4.44318 
1785 2 2.97304 0.786254 -4.74031 
1852 2 2.11774 0.63501 -5.42376 
1882 2 2.92789 1.05306 -5.58624 
1226 2 3.71413 1.38427 -5.35378 
1910 2 3.71486 1.02268 -4.52887 
1172 2 4.3967 1.33983 -4.91573 
818 1 5.88575 1.19614 -5.91698 
1377 2 -5.63392 1.90885 -4.12863 
188 1 -5.7443 3.27261 -4.92307 
1431 2 -5.66979 2.22846 -4.94859 
1716 2 -4.94203 2.55784 -5.41808 
1620 2 -4.08548 2.79094 -5.1346 
1762 2 -3.70566 3.16797 -5.81639 
820 1 -3.04764 1.96359 -5.18844 
1015 1 -2.30212 2.62588 -5.64042 
903 1 -2.39134 1.88613 -4.65344 
719 1 -1.61302 2.34014 -4.86081 
494 1 -1.39238 2.83884 -5.41325 
28 1 -1.7362 3.21729 5.81053 
1639 2 -0.208422 1.94596 -5.39928 
1281 2 -0.402324 2.13504 5.72345 
1628 2 1.71984 2.48311 -4.486 
1979 2 2.02571 2.98184 -5.28359 
1506 2 1.23723 2.59497 -5.19328 
63 1 2.69827 2.45755 5.80977 
621 1 2.7381 2.03703 -5.33565 
1214 2 2.55655 2.80826 -4.55678 
1769 2 3.31591 3.43657 -4.83067 
396 1 3.60417 2.41153 -5.281 
445 1 4.52108 2.84789 -5.10924 
1396 2 5.53024 2.17619 -5.61622 
204 1 5.3856 3.24958 -5.19499 
92 1 -4.38911 3.60895 -4.37307 
923 1 -4.90399 3.62951 -4.99066 
1971 2 -5.55764 4.47325 -4.76208 
607 1 -4.16606 3.91958 -5.23849 
797 1 -3.60155 4.00008 -4.71601 
45 1 -3.48298 4.5351 -5.55265 
1877 2 -3.15056 2.92494 -5.01712 
1142 2 -2.28987 3.67514 -5.22749 
1869 2 -1.64011 4.07778 -5.54709 
1824 2 -0.822728 3.84146 -4.86672 
72 1 0.979851 3.62794 -5.08382 
852 1 -0.491522 2.96175 -5.27415 
1926 2 -0.335032 4.4455 -5.16046 
1304 2 0.429814 4.48258 -4.86129 
1336 2 -0.962132 4.25773 -5.66488 
710 1 0.184321 3.46553 -5.58966 
950 1 1.02234 3.84355 5.92588 
709 1 1.8783 3.92461 -5.22203 
716 1 2.53395 4.341 -4.8516 
777 1 2.311 4.46286 -5.70641 
1130 2 2.81489 3.29529 -5.35113 
1274 2 3.96536 3.66603 -5.19753 
1073 2 4.63254 3.91771 -4.60315 
1342 2 4.38834 4.21074 5.93492 
178 1 -5.85876 3.58465 -5.75105 
1618 2 5.10759 4.30696 -5.14966 
1640 2 5.8446 4.50821 -5.4886 
1670 2 -5.47851 4.99875 -5.67525 
579 1 5.85259 5.35156 -4.45413 
1349 2 -4.92025 4.93948 -5.05918 
1575 2 -4.88009 4.58992 -4.23481 
1048 2 -4.14401 5.06111 -5.09366 
250 1 -2.84607 4.50789 -4.8985 
1413 2 -3.66368 5.6038 -5.55501 
1151 2 -2.3955 5.80215 -4.72947 
82 1 -2.02621 4.86975 -4.99245 
17 1 -1.2268 5.20247 -5.35443 
568 1 -1.47923 4.75205 -4.56285 
1354 2 0.176819 4.75017 -5.7725 
495 1 -0.053769 5.65413 -5.43802 
822 1 0.853237 -5.94644 -4.8799 
1039 2 1.04153 4.9617 -5.11091 
1847 2 2.43709 5.34728 -4.8714 
1823 2 2.97249 5.8155 -5.58149 
501 1 3.09716 4.64293 -5.5271 
653 1 3.69051 4.68798 -4.88853 
48 1 4.36974 5.16457 -5.4745 
1875 2 4.36905 -5.63501 -4.63309 
699 1 5.41867 5.55668 -5.21712 
662 1 4.7085 5.21417 -4.66284 
486 1 4.93536 5.57836 -5.87349 
1418 2 -5.65284 -5.18676 -4.19772 
1079 2 -4.5456 -4.97545 -3.97782 
1477 2 -4.1577 -4.41537 -4.61023 
1008 1 -3.27889 -5.53776 -4.14311 
1807 2 -3.61344 -4.72364 -3.6247 
333 1 -3.02057 -5.12476 -4.9279 
508 1 -2.88521 -5.79463 -3.31128 
805 1 -2.51096 -5.34544 -3.97197 
1429 2 -1.03972 -5.7646 -4.43188 
274 1 -1.79073 -5.31822 -3.59695 
1029 2 -0.316918 -5.68536 -3.90147 
1260 2 0.180953 -5.2836 -4.47665 
1486 2 1.00791 -5.25721 -4.15814 
673 1 2.00099 -5.89841 -4.14624 
1737 2 1.14323 -4.71798 -4.7482 
64 1 2.45161 -5.35042 -4.56 
648 1 2.70347 -5.49102 -3.82053 
1844 2 2.68917 -4.37108 -3.6797 
575 1 2.2595 5.90021 -3.31337 
1013 1 3.63336 -5.04994 -3.88803 
666 1 4.60684 -4.93464 -3.55153 
496 1 5.59499 -4.57947 -3.3273 
1358 2 5.74971 -5.58672 -3.6724 
75 1 5.92485 -3.89572 -5.28958 
246 1 -4.70068 -3.99399 -3.69259 
798 1 -5.52353 -4.13051 -4.01619 
483 1 -4.21083 -3.51653 -4.22143 
1261 2 -3.34877 -4.35637 -4.30493 
1106 2 -2.55852 -4.53331 -3.43639 
1402 2 -2.63769 -4.15174 -4.14349 
2009 2 -1.84612 -3.92504 -3.84988 
467 1 -0.296662 -4.10154 -4.88843 
1711 2 -0.570317 -3.46282 -3.94061 
453 1 -1.15585 -4.79756 -3.83445 
1280 2 -0.986287 -3.90388 -3.34464 
413 1 0.469841 -3.88515 -4.57657 
326 1 -0.224858 -4.44346 -4.06714 
1678 2 1.73427 -4.74953 -3.91261 
122 1 1.47438 -3.74208 -4.00049 
782 1 0.524974 -4.29205 -3.82056 
547 1 2.37311 -3.46003 -3.90512 
1836 2 2.95699 -4.08177 -4.69823 
1995 2 3.85547 -3.52452 -4.79622 
2010 2 3.72553 -4.01977 -3.99931 
1655 2 4.45993 -3.76381 -3.63684 
1929 2 4.71931 -3.39969 -4.36023 
339 1 5.66816 -4.13257 -4.61487 
847 1 5.10201 -4.49146 -4.06537 
1240 2 5.18157 -3.71209 -3.01124 
1911 2 -4.76476 -2.65743 -4.31946 
1871 2 -4.40764 -2.67069 -3.58687 
1657 2 -5.63842 -2.84605 -3.99263 
1465 2 -4.32192 -2.09658 -4.75998 
218 1 -3.4592 -3.07635 -4.50887 
1097 2 -3.72636 -2.18049 -3.88372 
664 1 -3.20617 -3.45217 -3.72905 
236 1 -2.70673 -2.81859 -4.10468 
196 1 -1.6153 -2.59883 -4.1829 
597 1 -0.783201 -2.28335 -4.25577 
1370 2 -0.0117968 -3.27942 -3.36541 
1006 1 -0.18829 -2.01141 -3.77953 
367 1 0.584609 -1.86546 -3.50086 
1555 2 1.52486 -1.98857 -5.31593 
1581 2 0.179019 -3.05832 -4.1481 
1083 2 1.20761 -2.4986 -4.48504 
403 1 2.89716 -3.50392 -3.01037 
1259 2 2.07105 -2.2535 -4.21274 
602 1 3.26082 -3.06119 -3.74238 
609 1 4.5619 -2.41816 -4.18996 
1201 2 5.42577 -3.33358 -3.76456 
740 1 5.27073 -1.94518 -4.32986 
66 1 5.02236 -2.51371 -3.4431 
833 1 5.8142 -2.00611 -3.61051 
717 1 -5.20912 -1.52479 -4.12909 
205 1 -5.11715 -2.0171 -3.19938 
161 1 -4.27238 -1.42946 -3.44501 
1745 2 -3.54148 -1.6735 -4.81668 
767 1 -3.44793 -0.988267 -3.67639 
58 1 -2.91555 -1.10878 -2.79562 
1682 2 -2.76553 -2.01787 -3.38045 
917 1 -2.12312 -1.05511 -2.83584 
1781 2 -1.37318 -1.77593 -3.09981 
704 1 -2.51739 -0.797292 -3.49609 
1345 2 -1.25473 -1.38951 -3.93115 
1069 2 -0.581026 -1.1543 -3.18432 
11 1 0.339059 -1.71054 -4.56632 
1644 2 0.335253 -0.872982 -3.1299 
421 1 1.20724 -1.48111 -4.0625 
674 1 1.85098 -0.962932 -4.48499 
768 1 1.76973 -1.30008 -3.6072 
1030 2 2.77064 -1.92557 -4.20099 
106 1 2.60347 -0.906485 -3.87159 
1167 2 3.70287 -1.73484 -3.74563 
2036 2 4.05242 -1.08434 -4.43617 
427 1 3.34146 -0.690808 -3.55331 
543 1 -5.85076 -1.58942 -4.66384 
1163 2 5.39372 -0.830675 -4.05363 
1110 2 4.65838 -1.42844 -3.73335 
1111 2 -5.5635 -0.596204 -3.79657 
278 1 -5.12654 0.706069 -3.34673 
1498 2 -5.16347 -0.168324 -4.59975 
1834 2 -3.74224 0.0488932 -3.37862 
1736 2 -3.04523 0.350339 -4.3236 
630 1 -1.59199 -0.458626 -3.15801 
37 1 -1.73788 -0.457363 -3.92586 
799 1 -0.88717 0.0648214 -4.3853 
1537 2 -0.260506 -1.14998 -4.11202 
1296 2 0.468107 -0.65091 -3.87385 
789 1 -0.150576 0.430481 -4.47592 
1456 2 1.12382 -0.416996 -3.4987 
1975 2 0.879435 -0.217262 -4.43411 
1412 2 1.70611 -0.0225862 -3.90958 
1470 2 2.5501 0.280175 -4.08641 
1832 2 3.11004 0.252456 -2.98461 
715 1 4.12253 -0.0395497 -4.51157 
1777 2 3.3368 0.48374 -3.76934 
469 1 5.01857 0.417153 -4.7668 
872 1 5.67843 0.510141 -4.05269 
692 1 4.91706 0.0387477 -4.00533 
697 1 -5.50015 0.901233 -4.31766 
1986 2 5.61506 1.57771 -3.83475 
1132 2 -5.30716 1.74043 -3.27592 
164 1 -3.69078 1.13159 -3.77326 
689 1 -4.51125 1.13684 -3.96622 
613 1 -3.09366 1.13185 -3.16096 
1050 2 -2.33303 0.735083 -4.63953 
489 1 -3.02215 1.51534 -4.1098 
1550 2 -2.17818 0.52486 -3.7407 
1054 2 -1.57036 0.969661 -4.39811 
1149 2 -1.32319 0.698903 -3.43834 
80 1 0.879533 0.933209 -4.49454 
1063 2 -0.767115 1.39242 -4.72189 
1386 2 -0.679467 1.19402 -3.94445 
1364 2 0.129307 1.69349 -4.5918 
625 1 0.583075 0.572468 -3.82137 
254 1 1.90936 1.28022 -4.56378 
760 1 1.475 1.04049 -3.8894 
1011 1 2.372 1.25765 -3.66163 
731 1 3.23914 1.51854 -3.48343 
1673 2 4.19967 0.591234 -3.28532 
894 1 3.56733 2.05432 -4.41777 
381 1 4.05723 2.05167 -3.50583 
2008 2 4.17847 0.989539 -3.96421 
1497 2 5.41273 1.91508 -4.64806 
1068 2 4.93987 1.23352 -4.19882 
1654 2 -4.86773 2.34291 -4.46001 
676 1 -4.96572 3.19417 -3.96067 
726 1 5.90534 2.92408 -3.83735 
1485 2 -4.45321 2.06157 -3.5868 
1728 2 -3.91903 2.45794 -4.44274 
369 1 -4.37447 3.1072 -3.2827 
1625 2 -2.56696 3.10135 -4.29435 
1607 2 -2.34269 2.72498 -3.38706 
982 1 -1.05992 2.36772 -4.21139 
843 1 -0.370453 2.65965 -4.52882 
1476 2 -1.77316 3.12057 -3.96633 
1683 2 0.625332 2.16417 -5.07315 
561 1 0.307625 3.25328 -4.78576 
397 1 -0.130484 2.45606 -3.64981 
56 1 0.70242 3.00169 -4.01846 
2020 2 0.985554 2.03533 -4.26352 
896 1 1.65236 3.29691 -3.72253 
1158 2 1.60867 2.1504 -3.71376 
1999 2 2.32627 2.47622 -3.77006 
1522 2 3.2006 2.94832 -3.82959 
1562 2 4.16126 2.97951 -3.33831 
171 1 4.12681 2.58498 -4.47272 
869 1 5.28884 2.91929 -4.34405 
702 1 4.60436 2.20388 -4.06561 
811 1 5.27485 2.50296 -3.36599 
1275 2 -5.44497 4.15787 -3.87028 
1333 2 5.57817 3.95292 -3.57816 
989 1 -3.77596 3.41553 -3.79389 
26 1 -3.29891 3.51908 -3.06049 
1957 2 -4.30538 4.41788 -3.65372 
446 1 -3.07872 3.82541 -3.97511 
340 1 -2.29996 4.28255 -4.20947 
1175 2 -1.60447 3.58427 -4.71165 
1268 2 -0.928166 3.50949 -3.92411 
86 1 -0.846966 4.56197 -3.67163 
1689 2 -0.0816814 3.97731 -4.33067 
1161 2 0.991681 4.41772 -4.12966 
1183 2 0.537759 3.87466 -3.59619 
310 1 1.44652 3.44279 -4.43223 
510 1 2.36627 3.55564 -3.34718 
1372 2 1.34596 4.12113 -3.29302 
884 1 2.2261 3.7596 -4.23667 
183 1 3.15115 3.98411 -3.53252 
2039 2 4.00658 3.49949 -4.14569 
256 1 3.26902 4.42801 -4.24582 
835 1 4.20794 4.78876 -4.08376 
1439 2 4.77147 3.6532 -3.88465 
1636 2 5.58947 4.13789 -4.4855 
1994 2 4.94832 3.34131 -2.98476 
435 1 -5.21203 5.71926 -4.38601 
918 1 -5.64872 5.21892 -3.7634 
346 1 -4.66712 5.44229 -3.5603 
1038 2 -3.89882 4.86699 -4.32852 
473 1 -4.04199 5.82316 -4.0853 
1236 2 -3.20465 4.96408 -3.50047 
1329 2 -2.50766 5.24261 -4.01602 
1526 2 -3.16557 5.49512 -4.66663 
1334 2 -1.56581 5.64354 -3.87571 
123 1 -0.676372 5.27345 -4.79036 
1571 2 -1.54044 5.30546 -3.14573 
628 1 -0.20981 4.91854 -3.83408 
503 1 0.16069 5.4911 -4.48616 
564 1 0.612057 5.3179 -3.80239 
959 1 1.27986 5.58711 -3.9727 
1668 2 1.75207 4.90261 -4.44718 
2040 2 1.9485 4.54163 -3.62166 
1667 2 3.19811 5.59412 -4.82336 
1955 2 2.6156 5.18337 -3.91869 
1691 2 3.35094 5.54687 -3.70554 
1244 2 3.83823 5.81592 -4.21436 
1704 2 5.02984 -5.83842 -3.92658 
443 1 5.21822 4.94111 -3.92292 
775 1 4.73972 4.63331 -3.21413 
1425 2 5.37579 5.82066 -2.90611 
1394 2 -5.58801 -5.85108 -2.94959 
1197 2 -4.95359 -5.44979 -3.4316 
1822 2 -4.67016 -5.7385 -2.46786 
153 1 5.79208 -5.39014 -1.7558 
1285 2 -5.62543 5.74261 -2.2219 
1047 2 -4.26302 -5.20662 -2.97079 
1404 2 -3.61644 -5.30269 -2.3954 
1783 2 -3.14142 -4.82466 -2.92797 
260 1 -2.13059 -5.85074 -2.88714 
1613 2 -2.96661 -5.29182 -1.64587 
337 1 -1.11434 -5.31258 -2.94146 
934 1 -0.418115 -4.88 -3.44415 
954 1 -1.60113 5.91764 -2.29083 
5 1 0.256784 -4.53414 -2.98503 
1592 2 0.446402 -5.58406 -3.43116 
678 1 -0.986737 -5.56145 -2.0542 
147 1 -0.315751 -5.24557 -2.49232 
1742 2 1.18918 -5.30345 -3.17118 
661 1 0.46835 -4.98489 -2.15365 
1319 2 1.91006 -5.25401 -2.62176 
1082 2 2.30317 -4.79136 -3.04009 
180 1 3.38193 -5.85119 -2.26727 
1563 2 3.53693 -4.23517 -3.14007 
1887 2 3.0859 -4.71193 -2.42082 
57 1 3.98275 -5.26554 -2.99173 
955 1 4.99274 -5.1659 -2.6445 
1194 2 3.92457 -4.43576 -2.2257 
67 1 4.21313 -5.52003 -2.22164 
422 1 4.90004 -5.3576 -1.74211 
284 1 5.92312 -4.98477 -2.52122 
1400 2 -5.47655 -3.73556 -2.36722 
411 1 -5.42053 -4.61084 -3.20262 
864 1 -5.08993 -4.7403 -2.16867 
1817 2 -4.70558 -3.24866 -2.51164 
524 1 -3.89559 -3.87881 -3.14843 
366 1 -4.71794 -4.33392 -2.77328 
182 1 -3.91679 -4.3298 -2.28685 
599 1 -3.20401 -3.91267 -2.53308 
1843 2 -1.818 -4.47551 -2.84485 
313 1 -2.64975 -3.40364 -3.06781 
1531 2 -2.64006 -5.12893 -2.4179 
1896 2 -1.04921 -4.39848 -2.60009 
1878 2 -0.339463 -3.84001 -2.73368 
328 1 0.959029 -4.48936 -2.49382 
1848 2 0.791032 -3.59352 -1.84825 
249 1 1.39216 -4.79659 -1.59064 
321 1 2.07958 -3.67529 -3.10122 
107 1 1.20709 -4.0433 -3.30809 
1521 2 4.28033 -4.00332 -2.90754 
914 1 2.69037 -3.90281 -2.0709 
754 1 3.43753 -3.66355 -1.71906 
1767 2 -5.83164 -3.40842 -3.04613 
1765 2 4.72746 -4.09708 -2.27387 
2002 2 5.58432 -4.04051 -2.2501 
1664 2 -5.10434 -3.2188 -3.20252 
291 1 -5.94924 -2.2832 -2.827 
2007 2 -3.95781 -2.91479 -2.83436 
1086 2 -3.30431 -2.45684 -3.02675 
1052 2 -3.19482 -2.97286 -2.21351 
1505 2 -2.63504 -2.43334 -2.10723 
1391 2 -1.65436 -2.24049 -2.14416 
388 1 -2.07249 -2.99442 -3.48407 
753 1 -1.20599 -3.15066 -2.62087 
657 1 -1.00351 -2.64054 -3.41893 
677 1 -0.445302 -2.95807 -2.03179 
573 1 -0.330202 -2.26861 -2.92884 
1645 2 0.636693 -3.24361 -2.86113 
1982 2 0.874811 -2.91995 -3.76109 
1457 2 1.46166 -2.98345 -2.56361 
211 1 1.12189 -2.17016 -1.93767 
1676 2 2.70021 -2.34323 -3.34621 
1401 2 1.67604 -2.59862 -3.4669 
1533 2 2.44179 -2.72569 -2.67403 
1263 2 1.67593 -3.25595 -1.64571 
999 1 4.08866 -2.76423 -3.47435 
1001 1 3.69547 -3.10744 -2.69646 
1326 2 3.16771 -2.47946 -2.14716 
213 1 -5.90472 -2.89695 -2.17855 
784 1 5.06921 -2.78151 -2.60827 
140 1 4.33875 -2.9215 -2.43485 
1754 2 5.25399 -1.5666 -2.45888 
2035 2 -5.6344 -1.0511 -2.67366 
1876 2 -4.4212 -0.575124 -2.96269 
1962 2 -5.71099 -1.47365 -1.92521 
1972 2 -4.81906 -1.12201 -2.11504 
636 1 -4.36832 -1.95823 -2.52342 
592 1 -3.72391 -1.37069 -2.69677 
275 1 -4.06644 -2.13484 -1.62701 
1589 2 -4.01803 -0.768855 -1.87928 
1808 2 -2.1407 -2.30572 -2.81987 
285 1 -3.2613 -1.66398 -2.08785 
117 1 -1.62981 -0.932192 -2.12009 
1801 2 -0.966824 -1.70466 -2.37119 
1870 2 -0.259378 -1.30909 -2.49813 
1819 2 1.18854 -0.869615 -2.73627 
1057 2 0.618093 -1.22181 -2.11968 
2046 2 1.57386 -0.95851 -1.77531 
287 1 1.30735 -1.8814 -2.87648 
215 1 1.98197 -1.84119 -2.31432 
1143 2 0.542367 -1.566 -1.24533 
581 1 2.44695 -1.44962 -2.93838 
839 1 2.84555 -1.57702 -2.13796 
125 1 3.25261 -1.07504 -2.77091 
1350 2 4.43221 -1.65891 -2.97042 
1973 2 3.47763 -2.02877 -2.95181 
377 1 4.00971 -0.716273 -2.8969 
1346 2 5.42173 -1.16397 -3.26682 
1436 2 -4.82562 -0.184259 -3.85925 
241 1 -5.81562 -0.0595908 -2.53662 
297 1 -4.83676 0.307965 -2.63418 
1098 2 -3.46036 -0.278124 -2.5219 
1206 2 -2.6444 0.0667425 -2.66181 
900 1 -3.4417 0.75793 -2.36761 
1761 2 -2.90345 0.187412 -3.54084 
1507 2 -2.33378 -0.0757384 -1.88371 
419 1 -0.885673 -0.25514 -3.66429 
59 1 -0.978017 -0.457658 -2.4582 
2043 2 -1.65373 0.324189 -2.00758 
2022 2 -1.96242 0.424998 -2.84164 
517 1 -0.168329 0.287846 -3.5694 
898 1 -0.24279 -0.144818 -2.82359 
464 1 0.35474 -0.0875219 -2.19489 
499 1 0.789686 0.340089 -2.87945 
783 1 1.2032 0.103497 -2.1586 
1916 2 2.06957 -0.637369 -2.80087 
1517 2 2.23029 -0.0238785 -3.34166 
1360 2 2.57566 -0.175419 -2.56316 
199 1 4.25373 -0.348001 -3.58937 
2027 2 3.93542 0.077788 -2.57705 
1696 2 3.31543 -0.0304459 -1.99207 
190 1 5.97764 0.26158 -3.45267 
1952 2 5.10082 0.741879 -2.5821 
109 1 5.23021 -0.183489 -3.0038 
1512 2 -4.47503 1.78728 -2.66075 
1858 2 -5.87025 1.32412 -2.78866 
1720 2 -5.11046 1.20009 -2.20909 
32 1 -4.14882 0.844627 -2.99556 
189 1 -2.44888 1.2305 -2.51897 
1520 2 -3.37472 1.91995 -2.27349 
686 1 -2.47181 1.599 -3.33824 
585 1 -1.76316 1.99491 -3.92701 
259 1 -1.80176 1.45515 -2.18169 
1104 2 -1.12229 0.560577 -2.68707 
134 1 -1.67482 1.67313 -3.0826 
115 1 -1.02872 1.66396 -2.39463 
1187 2 -0.400471 1.10925 -3.02307 
1310 2 0.182741 1.48615 -3.74246 
1297 2 0.101902 0.912648 -2.35076 
594 1 1.40408 0.80476 -3.10068 
1340 2 0.421882 1.47009 -2.87872 
1860 2 1.14265 1.58177 -2.48346 
1021 1 2.10355 1.00231 -2.94698 
492 1 2.95935 1.14514 -2.62183 
1642 2 1.98481 2.07711 -2.79705 
1786 2 2.64656 2.09575 -2.15442 
886 1 1.79583 0.487081 -2.28595 
874 1 3.70437 1.49207 -2.81269 
1017 1 4.15642 1.33226 -2.20293 
1724 2 5.70238 0.899907 -2.13989 
1953 2 5.22212 1.07432 -3.31447 
104 1 4.8996 1.70305 -2.02019 
631 1 -5.49076 2.77435 -3.22967 
194 1 -5.05255 2.63078 -2.57351 
7 1 5.6921 2.35763 -2.63732 
1938 2 -3.65074 2.07171 -3.24298 
276 1 -4.01649 2.90473 -2.48892 
1794 2 -3.221 2.53906 -3.93552 
1415 2 -3.0186 2.35854 -2.79863 
1959 2 -1.9834 2.62486 -2.68544 
460 1 -3.06184 3.36941 -2.28866 
208 1 -0.929474 2.18978 -3.43716 
1756 2 -1.20188 3.14227 -3.03287 
301 1 -0.273495 2.28981 -2.65768 
76 1 0.493532 2.53721 -2.99985 
1107 2 -0.476245 3.23443 -2.46797 
1838 2 1.07837 1.67054 -3.31079 
885 1 1.01996 2.88122 -3.2867 
143 1 1.18581 2.6871 -2.24643 
1461 2 2.7357 2.36558 -3.03724 
1977 2 3.65268 2.28083 -2.13102 
742 1 2.87964 3.14677 -1.93849 
1330 2 3.45836 2.73282 -2.90765 
1866 2 4.32921 2.4796 -1.59297 
232 1 4.74869 1.96113 -2.88446 
1026 2 4.28582 2.87893 -2.48088 
1825 2 5.72874 3.34362 -2.35787 
1399 2 -5.74463 3.84812 -2.96256 
1669 2 -4.94721 4.03088 -3.19489 
1278 2 -4.55845 3.89469 -2.27944 
355 1 -5.81019 4.56947 -2.15404 
1419 2 -4.04678 4.24454 -2.77628 
1325 2 -3.74621 4.09293 -1.97196 
1155 2 -2.82609 4.13801 -1.22076 
772 1 -2.49452 3.80466 -3.2034 
612 1 -1.66801 4.23374 -3.5898 
520 1 -2.26291 3.57933 -2.31892 
1348 2 -2.68472 4.53058 -2.09433 
733 1 -1.47564 3.99808 -2.55859 
720 1 -0.770395 4.40615 -2.82683 
1679 2 0.359644 3.60305 -2.66733 
1616 2 -0.326809 3.43895 -3.35641 
111 1 0.073649 4.48183 -2.25525 
1968 2 1.19879 3.93764 -2.38753 
1071 2 2.04507 4.25264 -2.69 
379 1 2.62562 3.4292 -2.58946 
34 1 3.48274 3.75323 -2.68577 
1499 2 3.15349 4.67597 -2.37619 
1093 2 2.63162 4.76773 -2.99979 
394 1 3.91837 4.3839 -3.39436 
650 1 4.28747 3.88615 -1.55841 
448 1 4.38525 4.04837 -2.53385 
432 1 5.16475 3.89308 -1.46646 
552 1 5.13407 4.28093 -2.27307 
370 1 -5.33976 4.95985 -2.90524 
255 1 -3.67178 5.84303 -3.40195 
993 1 -4.37131 5.21242 -2.84054 
295 1 -3.29929 5.57008 -2.54952 
1287 2 -3.20805 4.61474 -2.80384 
1335 2 -2.36437 4.99993 -3.12757 
229 1 -2.52492 5.69597 -2.11472 
1338 2 -0.808176 5.67177 -3.32795 
1543 2 -0.851072 5.30262 -2.35724 
1747 2 0.85303 -5.92574 -2.66223 
836 1 0.3559 4.86808 -3.07452 
652 1 1.01885 5.00672 -2.4931 
487 1 1.93445 5.30959 -2.54547 
442 1 1.37883 5.24228 -3.18151 
667 1 2.69545 5.73873 -2.6671 
49 1 3.21766 -5.48059 -3.23392 
1593 2 3.54321 5.15668 -2.92093 
1489 2 4.47602 5.7162 -3.26998 
1714 2 4.64756 5.40629 -2.4737 
262 1 5.68012 4.83609 -3.1124 
1312 2 5.44474 5.46212 -2.15529 
452 1 -5.4355 -5.03723 -1.45972 
724 1 -4.416 -4.77035 -1.55468 
1454 2 -3.99746 -5.73813 -1.75376 
1292 2 -4.48794 5.6573 -0.886098 
1582 2 -3.39182 -5.86913 -1.00583 
1209 2 -2.64928 -5.51134 -0.799811 
1327 2 -1.85164 -4.95997 -1.15497 
1932 2 -1.1027 -4.76524 -0.864219 
497 1 -1.21322 -5.82419 -1.22204 
459 1 -0.163439 -5.38468 -1.59035 
245 1 0.748364 -4.99585 -1.33256 
1019 1 1.57009 -4.99477 -0.709229 
1749 2 3.10459 -5.37058 -0.978811 
1928 2 2.60864 -5.29279 -1.97085 
1081 2 2.11544 -5.64752 -1.26393 
1528 2 2.10239 5.89613 -0.517996 
1859 2 3.40758 -4.86981 -1.6185 
1487 2 4.79905 -4.80822 -0.660296 
542 1 5.08587 -5.74298 -0.980493 
586 1 4.28383 5.8348 -1.22384 
1131 2 -4.81902 -3.78077 -1.68338 
1924 2 -4.02044 -3.35501 -1.87176 
504 1 -3.37089 -4.44107 -1.47929 
21 1 -2.7 -4.10871 -1.77814 
71 1 -2.0399 -3.56472 -2.38372 
46 1 -3.00248 -4.44926 -0.746793 
890 1 -2.21787 -4.10817 -0.95879 
1802 2 -1.83944 -4.88277 -1.98956 
324 1 -1.30712 -3.85157 -0.517711 
51 1 -1.343 -3.71777 -1.51831 
1246 2 -0.814179 -4.50008 -1.81067 
1753 2 -0.304893 -4.35102 -1.02549 
844 1 -0.555511 -3.26156 -1.35323 
1580 2 -0.0650522 -3.98294 -1.86945 
1894 2 1.18966 -3.66515 -1.10551 
1738 2 1.47427 -3.92775 -0.401064 
938 1 1.70621 -4.11588 -2.5097 
20 1 2.11518 -4.33832 -1.48358 
1066 2 2.05361 -3.33267 -0.921003 
550 1 2.89815 -4.07987 -1.22184 
1409 2 4.3811 -4.64853 -1.57263 
562 1 4.30454 -3.38589 -1.678 
1530 2 -5.64848 -4.06678 -1.58299 
1217 2 -5.39151 -4.36953 -0.72751 
2017 2 5.27382 -4.29523 -1.49204 
296 1 5.13162 -2.97999 -1.84775 
764 1 -5.51141 -2.98648 -1.41669 
311 1 5.53745 -3.42396 -1.07749 
968 1 -5.14718 -2.32293 -2.1942 
734 1 -4.7421 -2.65815 -1.42234 
1442 2 -3.10342 -3.13927 -1.20038 
722 1 -3.52862 -2.27114 -0.930998 
1216 2 -2.21552 -2.73909 -1.44381 
1449 2 -0.782695 -1.95263 -1.37406 
1459 2 -1.44372 -2.56297 -1.23104 
1235 2 -0.956166 -2.45911 -0.580614 
526 1 0.52758 -2.20529 -2.73419 
830 1 0.231184 -2.60023 -1.80612 
705 1 1.04994 -2.49644 -1.02888 
604 1 1.73893 -2.53015 -0.465472 
566 1 1.98751 -2.02032 -1.26092 
1991 2 2.43073 -2.93493 -1.76919 
1010 1 2.748 -1.83234 -1.4398 
1123 2 4.03779 -2.00955 -2.32422 
1947 2 3.36857 -2.73972 -1.40877 
1978 2 4.1878 -2.37138 -1.41693 
928 1 4.58268 -3.60772 -0.919289 
1787 2 3.76737 -3.01273 -0.545658 
1946 2 5.58118 -1.99076 -1.629 
1514 2 -4.559 -1.19323 -1.19077 
1826 2 -5.39496 -1.58487 -1.18182 
683 1 -2.92191 -1.80758 -1.30276 
447 1 -1.66513 -1.68411 -0.598532 
449 1 -2.44513 -1.35194 -2.15895 
1025 2 -3.52004 -0.945551 -1.08858 
548 1 -2.04019 -1.57948 -1.331 
160 1 -1.12217 -1.00647 -1.3328 
1659 2 -0.129223 -2.03148 -0.831593 
750 1 -0.320785 -0.920765 -0.956356 
1113 2 -0.0594711 -1.6628 -1.92873 
1493 2 0.600622 -1.7687 -0.420328 
1796 2 1.40713 -1.24845 -0.925427 
1831 2 1.74833 -1.4163 -0.24473 
1897 2 2.23809 -0.920866 -1.05497 
145 1 3.64863 -1.7319 -1.03823 
626 1 3.73701 -1.15398 -1.88819 
867 1 4.61566 -1.01664 -1.67007 
334 1 4.79285 -0.657283 -2.45708 
222 1 4.69308 -1.57143 -0.515697 
1279 2 4.79518 -1.94753 -1.92773 
518 1 5.18044 -0.933866 -1.17484 
230 1 -5.21754 -0.0834726 -1.71208 
876 1 -5.85909 -0.672243 -1.27106 
654 1 -4.60422 -0.133891 -1.08501 
921 1 -3.50894 0.551871 -1.37824 
824 1 -4.24601 0.174591 -1.84331 
912 1 -3.73917 -0.0295865 -0.693743 
1432 2 -3.04486 -0.505257 -1.76187 
1128 2 -2.30174 -0.470407 -1.25424 
488 1 -2.94533 0.331132 -0.811566 
1067 2 -1.50504 -0.0314848 -1.33231 
963 1 -0.298099 -0.585997 -1.81743 
615 1 0.498445 -0.485748 -1.46286 
1735 2 -0.646961 0.170963 -1.02912 
1726 2 0.197179 0.586369 -1.31641 
776 1 1.0452 0.00356623 -1.14149 
1568 2 2.41116 -0.550328 -1.76752 
90 1 2.05254 0.228646 -1.39874 
858 1 2.70848 0.506727 -1.08349 
1314 2 3.10133 -0.550606 -1.29768 
1758 2 2.96985 -0.866002 -0.612917 
1320 2 3.93834 -0.0920121 -1.3378 
691 1 5.55292 -0.407784 -1.90413 
1502 2 4.59886 0.303719 -1.98248 
1861 2 5.30982 0.461116 -1.38927 
2030 2 4.64033 -0.0648538 -0.870161 
1803 2 -5.89107 0.225679 -0.79483 
761 1 5.77428 1.93443 -1.90722 
1508 2 -4.59895 1.1997 -1.51908 
1282 2 -5.53095 0.839232 -1.43244 
110 1 -5.83514 1.75248 -0.995027 
1229 2 -4.09129 1.60017 -1.91937 
2038 2 -3.6631 1.46189 -1.10584 
94 1 -2.76566 0.846509 -1.76969 
1776 2 -3.02828 1.82532 -1.55178 
1170 2 -2.32331 1.97874 -1.01161 
614 1 -2.06069 1.07682 -1.3529 
1893 2 -0.583016 0.422635 -1.87546 
192 1 -1.11385 1.38399 -1.5344 
608 1 -1.28291 0.973172 -0.717654 
919 1 -0.290815 1.84691 -1.7741 
910 1 -0.362266 1.38941 -0.970191 
828 1 0.515737 1.92699 -1.26654 
1967 2 1.85885 1.60352 -1.8708 
1944 2 0.86969 1.08952 -1.84032 
50 1 2.63961 0.82014 -1.94975 
1874 2 2.6441 1.75427 -1.23052 
1718 2 3.41017 1.90788 -1.41689 
231 1 3.48337 0.765011 -0.66547 
16 1 3.5248 0.909722 -1.78844 
557 1 4.34403 1.13523 -1.403 
944 1 5.11884 1.57302 -1.15648 
69 1 -5.23003 2.04137 -1.79157 
926 1 -4.90318 2.22944 -0.9505 
1960 2 -5.12315 2.98681 -0.446107 
323 1 -3.50672 2.92577 -1.67784 
966 1 -4.41727 2.65196 -1.68422 
516 1 -3.96732 2.38631 -0.864885 
879 1 -2.45519 3.19058 -1.46983 
1839 2 -2.35073 2.40239 -1.99165 
298 1 -3.13257 2.61406 -0.923611 
322 1 -2.37194 2.86859 -0.472944 
1092 2 -1.55485 2.28251 -1.20913 
2021 2 -1.15104 2.65793 -2.12091 
1406 2 -0.742174 2.64368 -1.28249 
240 1 0.339062 2.19887 -2.02255 
1428 2 -0.0302871 3.21537 -1.53929 
1974 2 0.776179 3.41045 -1.71575 
1405 2 -0.0111442 2.78748 -0.745548 
478 1 1.81759 3.07205 -2.69225 
124 1 1.28112 2.36483 -1.49479 
114 1 2.01566 2.89577 -1.79617 
786 1 2.81509 2.76108 -1.02786 
1065 2 4.01186 2.10561 -0.85177 
582 1 3.70168 3.13085 -0.873656 
1328 2 5.00909 2.80567 -1.89499 
1368 2 -5.87178 2.96521 -1.57302 
1686 2 4.99148 2.53066 -0.983444 
1276 2 -5.26703 3.33712 -1.23179 
1527 2 -5.32324 3.47024 -2.14227 
952 1 -4.59334 4.67583 -1.39719 
1056 2 -4.44635 3.56259 -1.09134 
1105 2 -3.6689 3.77141 -1.11937 
1601 2 -1.97356 4.47232 -1.45082 
418 1 -1.54464 3.51059 -1.7254 
165 1 -0.781595 3.96959 -1.88903 
266 1 -0.82577 3.75177 -1.02959 
361 1 0.215999 4.32526 -1.40344 
1997 2 1.77009 3.92975 -1.69531 
1854 2 0.750456 3.18404 -0.940284 
905 1 1.54 4.66971 -0.988209 
1981 2 2.51653 4.2757 -2.08777 
1126 2 1.54444 3.4871 -1.10256 
1612 2 3.24132 4.47645 -1.26929 
580 1 4.74469 3.50512 -0.840304 
181 1 3.61543 3.42714 -1.73359 
2000 2 3.9348 4.93097 -2.05687 
1559 2 3.48724 4.09631 -0.443652 
961 1 -5.2911 4.35346 -1.43226 
166 1 5.92909 4.19777 -1.25451 
589 1 -4.86425 5.02283 -2.17301 
1122 2 -4.87323 5.854 -1.66793 
1203 2 -5.92698 4.85437 -0.344341 
342 1 -3.90442 5.11605 -1.96841 
203 1 -3.38351 4.96153 -0.687668 
807 1 -2.4868 4.95649 -0.291975 
119 1 -3.21952 5.25217 -1.46617 
1014 1 -2.43099 5.40587 -0.971632 
1339 2 -1.79318 4.91554 -2.23311 
774 1 -2.01863 5.92662 -1.44739 
1344 2 -1.1156 5.01695 -1.51934 
1814 2 -1.50175 4.47339 -0.669807 
1915 2 -0.123942 5.50882 -2.01239 
1818 2 -0.154921 5.71868 -2.88411 
1540 2 0.698462 5.90724 -1.84685 
1290 2 -0.381851 5.25929 -1.28059 
1611 2 0.426091 5.51814 -1.00254 