ITEM: TIMESTEP
30700
ITEM: NUMBER OF ATOMS
2048
ITEM: BOX BOUNDS pp pp pp
-5.9368481242095932e+00 5.9368481242095932e+00
-5.9368481242095932e+00 5.9368481242095932e+00
-5.9368481242095932e+00 5.9368481242095932e+00
ITEM: ATOMS id type x y z 
1714 2 5.6242 -4.95197 -5.41375 
14 1 -5.03595 -5.93276 -4.79047 
346 1 -4.2848 -5.79441 -4.52713 
333 1 -4.82223 -5.54933 -5.51581 
508 1 -4.00545 -5.31468 -5.45068 
467 1 -2.47562 -4.94152 -4.47804 
91 1 -3.04727 -5.02103 -5.67587 
1151 2 -2.21374 -5.40317 5.26457 
1551 2 -1.18461 -5.51216 -5.07824 
1029 2 -1.81296 -5.49009 -5.82376 
1199 2 -0.926933 -5.16573 5.92026 
902 1 -2.22475 -4.78844 -5.23931 
1571 2 -0.368092 -5.12119 -5.23507 
350 1 0.321205 5.78096 -5.29419 
1338 2 0.381929 -4.97618 -4.69597 
428 1 1.13721 -5.62283 -5.36574 
1013 1 1.048 5.73867 -4.69851 
442 1 1.89789 -5.27986 -5.56626 
496 1 2.76997 -4.94221 -5.46567 
575 1 2.62361 -5.40351 -4.64553 
1704 2 3.21448 5.90443 -5.63991 
1847 2 4.18417 -5.87376 -4.76135 
1901 2 4.0814 -5.58931 -5.67183 
707 1 3.66825 -4.77871 -5.05563 
1799 2 4.97937 -5.0642 5.62907 
1239 2 4.7684 -5.35451 -5.3195 
1390 2 -5.29627 -4.5258 -5.65369 
1249 2 -4.47488 -4.49376 -5.19571 
809 1 -4.55207 -3.62756 -4.80819 
684 1 -5.18269 -3.39854 -5.6564 
1472 2 -3.58882 -3.86919 -5.70987 
1630 2 -2.72149 -3.50148 5.83335 
1617 2 -2.78314 -3.90905 -5.0743 
1711 2 -1.75412 -3.44082 -5.16718 
530 1 -1.28758 -4.32947 -5.36953 
1 1 -0.578269 -4.19344 -4.69599 
413 1 -0.138028 -3.64404 -5.31089 
1542 2 0.930139 -4.54636 -5.03539 
782 1 0.75708 -3.413 -5.24704 
1236 2 1.84809 -4.21722 -5.02662 
1082 2 2.80056 -3.34826 5.83575 
1260 2 2.51615 -3.84895 -5.52175 
2019 2 3.94363 -3.64691 -4.50784 
1528 2 3.4558 -3.60081 -5.38705 
223 1 3.81365 -4.51491 -5.95674 
481 1 4.79584 -4.1996 -5.64725 
280 1 5.63419 -3.71332 -5.59745 
1705 2 -5.83204 -2.26228 -5.52498 
1745 2 -4.9651 -2.3311 -5.61233 
353 1 -3.82823 -2.99602 -5.2092 
196 1 -2.96353 -3.06677 -4.53221 
402 1 -2.16229 -2.46739 -5.09856 
218 1 -3.03054 -2.74191 -5.48465 
664 1 -2.20964 -2.11375 -5.90494 
1515 2 -0.730088 -2.93638 -5.09934 
1820 2 -0.307487 -2.44158 -5.90604 
595 1 -1.3364 -2.39072 -4.29038 
1250 2 0.355404 -2.24723 -5.29346 
1555 2 0.00800144 -2.68233 -4.68766 
1533 2 0.9997 -2.37712 -4.64983 
122 1 1.76601 -2.9383 -5.46718 
1698 2 1.64981 -2.14227 -4.83756 
547 1 1.38365 -3.35187 -4.57384 
904 1 3.13382 -2.88578 -4.81062 
779 1 2.68824 -2.39942 -5.57095 
308 1 2.82552 -2.00162 5.40591 
706 1 3.56598 -2.2015 -5.62878 
1887 2 4.33573 -3.31638 -5.37234 
1929 2 5.32433 -2.6055 -5.70585 
475 1 3.8458 -2.52298 -4.82667 
609 1 -5.40276 -1.30312 -5.43701 
562 1 -5.93757 -1.66714 -4.74428 
771 1 -4.87218 -1.33446 -4.57881 
1475 2 -4.19431 -1.69163 -5.89014 
2032 2 -3.51694 -2.19449 -4.26427 
117 1 -4.0076 -1.0284 -4.66899 
1588 2 -4.16394 -2.20197 -4.77629 
1975 2 -3.31028 -1.75215 -5.08887 
1243 2 -1.95165 -1.02349 -5.22756 
1414 2 -0.903329 -0.589181 -5.06426 
967 1 -1.49204 -2.05169 -5.16275 
922 1 -1.31462 -1.58042 5.87498 
35 1 -0.77562 -1.69317 -4.81857 
367 1 0.462018 -1.23274 -5.08656 
8 1 -0.503996 -1.44911 -5.56031 
788 1 0.570079 -0.878239 -5.87633 
1326 2 1.17955 -1.99531 -5.55772 
1401 2 2.30117 -1.60937 -5.13751 
1087 2 3.43602 -0.926215 -5.76907 
1202 2 2.56034 -1.20036 -5.93655 
1332 2 3.92174 -0.616777 5.35052 
277 1 4.48547 -1.918 -5.44344 
1982 2 4.40973 -0.712666 -5.67253 
1190 2 3.89081 -1.25119 -4.87616 
999 1 5.7009 -1.33486 5.96581 
33 1 5.20168 -1.683 -5.23737 
1725 2 -5.8899 -0.259445 -5.47588 
1110 2 -5.04509 -0.102583 -4.88721 
2014 2 5.84991 -0.634764 -4.60424 
701 1 -4.59066 -0.939364 -5.49744 
1111 2 -4.29921 0.103219 -5.21581 
55 1 -3.78318 -0.448907 5.75995 
833 1 -3.42185 -0.682039 -5.30566 
505 1 -2.32138 -0.216414 -4.75052 
1343 2 -3.50013 0.541589 -4.92178 
212 1 -2.9306 -0.0822638 -5.36178 
374 1 -1.79338 0.234849 -5.26875 
1355 2 -1.42499 -0.662999 -5.85952 
451 1 -0.000162787 0.905493 -4.69582 
244 1 -0.807221 0.690921 -5.15197 
1809 2 0.222039 0.0507998 -5.16616 
1631 2 0.608744 0.399545 -5.87893 
768 1 1.62571 -0.302213 -5.85973 
1785 2 1.32665 0.437607 -5.39661 
916 1 2.28393 -0.481388 -5.18942 
758 1 3.24906 0.00379979 -5.31601 
105 1 4.04924 0.235822 -5.30937 
334 1 3.21634 -0.371738 -4.49124 
1083 2 4.84751 -1.02213 -4.58511 
872 1 4.06966 -0.166652 -4.5687 
1257 2 5.19626 -0.611125 -5.26927 
715 1 5.5575 0.336001 -4.53407 
469 1 -5.79678 1.10355 5.78679 
109 1 -4.52007 1.69799 -5.69858 
190 1 -3.63381 2.14705 -5.58664 
1736 2 -3.62332 0.871732 -5.92259 
689 1 -3.77561 1.63522 -4.93224 
1256 2 -2.03152 1.33297 -4.94209 
1498 2 -2.74179 1.08793 -5.49348 
2001 2 -1.12713 1.64192 -4.71429 
1298 2 0.174043 2.30146 -5.122 
827 1 0.343784 1.22513 -5.3737 
1884 2 0.442882 1.81676 -4.17203 
482 1 -0.508036 1.27309 5.74766 
63 1 0.575609 1.62432 5.82624 
534 1 1.3445 1.81284 -5.88066 
1882 2 1.37537 0.78433 5.54379 
380 1 2.13545 1.6755 -5.01726 
1210 2 3.05521 0.872388 -4.71795 
1502 2 2.29676 0.651024 -5.23437 
1314 2 2.97375 1.1525 -5.81077 
1953 2 4.68286 1.8669 -5.62814 
1470 2 4.59658 1.49893 -4.85984 
195 1 4.93075 0.453073 -5.20088 
866 1 5.91165 0.820794 -5.12892 
1204 2 5.51598 1.61669 -4.74476 
1403 2 5.60946 2.03632 -5.71031 
1877 2 -5.03765 2.53021 -5.65262 
676 1 -5.69176 3.26057 -5.0228 
1800 2 -4.04705 3.07781 -5.33994 
1938 2 -3.43905 2.80046 -4.7976 
1412 2 -4.48226 2.48314 -4.92208 
546 1 -1.919 2.80201 -5.59215 
493 1 -2.74773 2.38346 -5.7825 
990 1 -2.67224 2.76368 4.99261 
815 1 -2.12008 2.31391 -4.8568 
619 1 -2.09625 2.98217 5.47621 
950 1 -0.243625 3.33845 -5.47163 
1364 2 0.83052 2.76038 -5.63852 
885 1 -0.507126 2.92035 -4.61758 
1628 2 1.57507 2.79428 -5.66376 
1085 2 1.74573 2.62033 -4.89722 
1967 2 2.26607 2.50873 -3.82608 
1342 2 2.37077 3.16085 -5.37298 
118 1 2.09877 2.03337 5.57117 
570 1 2.60238 2.18083 -5.60908 
574 1 3.88602 2.19027 -4.66022 
188 1 4.38127 2.67102 -5.26691 
96 1 3.50995 2.38678 -5.42997 
7 1 5.3756 2.85895 -5.10782 
926 1 -4.80881 3.71341 -5.35464 
1365 2 -5.02195 4.68773 -4.98011 
1482 2 -3.1909 3.38031 -5.36882 
923 1 -3.68315 4.25811 -5.39529 
323 1 -3.11179 4.24607 -4.61079 
69 1 -3.99717 3.85112 -4.75435 
1476 2 -2.43782 3.41709 -5.00032 
1772 2 -2.17945 4.01773 -5.70072 
1378 2 -1.60147 3.87953 -4.84519 
221 1 -2.47009 4.76404 -5.12973 
1934 2 -1.2885 4.2207 -5.58202 
1692 2 -0.731172 4.16425 -4.84609 
1336 2 -0.441107 4.55675 -5.54813 
852 1 0.427265 3.32901 -4.86302 
1756 2 0.403124 4.33401 -4.72509 
777 1 2.05327 4.34516 5.89061 
394 1 1.6502 3.47042 -4.33794 
653 1 1.96896 3.98895 -5.2727 
1002 1 2.87002 4.65443 -5.60754 
1214 2 3.20031 3.49862 -5.20297 
1274 2 4.08654 3.60509 -5.16329 
262 1 2.74231 4.15336 -4.66432 
1562 2 4.73535 3.47754 -4.43377 
1640 2 4.86971 4.02865 -5.42031 
1088 2 -5.8496 4.41605 -5.07212 
1073 2 5.68431 4.52549 -5.84909 
342 1 -5.71339 -5.97445 -5.44091 
412 1 -5.0371 5.63805 -4.02429 
166 1 -5.6482 5.45063 -4.66294 
1207 2 -5.33898 5.0181 -5.90599 
1527 2 -4.13589 4.91145 -4.77193 
1989 2 -3.73084 5.54453 -5.31102 
1526 2 -2.95677 5.63396 -4.85785 
1329 2 -2.01714 -5.84451 -5.02388 
146 1 -2.17451 5.08384 -5.86724 
1510 2 -2.19267 5.61991 -4.22343 
989 1 -3.06882 4.72299 -5.73555 
797 1 -1.63822 5.06468 -4.96002 
836 1 -0.855019 5.36401 -4.79526 
751 1 -2.35738 4.44157 -4.38481 
638 1 0.0624235 5.31462 -4.615 
340 1 -0.511761 5.67634 -5.70351 
1607 2 1.1355 4.67798 -5.15391 
1193 2 1.63979 5.77472 5.40534 
1145 2 1.88301 4.88007 -4.70689 
1033 2 1.80065 5.29377 -5.62316 
1955 2 2.43842 5.54698 -5.26381 
1093 2 3.36162 5.56157 -4.88033 
437 1 4.65307 4.99188 -5.05842 
473 1 3.64436 4.92651 -5.60899 
699 1 5.45744 5.25092 -4.87428 
1227 2 -5.52439 -4.98261 -4.83017 
1203 2 5.83539 -5.43848 -4.09293 
1612 2 -5.27348 -5.29694 -3.76771 
1411 2 -3.95714 -4.696 -4.17063 
274 1 -3.39815 -5.72602 -3.94927 
5 1 -3.18155 -5.16271 -4.78444 
147 1 -2.53906 -5.37755 -3.61513 
497 1 -1.71358 -5.04819 -3.68626 
107 1 -0.788035 -4.64758 -3.95887 
1353 2 -1.32814 -5.79358 -4.25799 
1503 2 -0.301918 -5.51799 -4.39774 
1747 2 -0.016548 -5.81384 -3.45485 
1818 2 -0.80317 -5.90374 -3.6351 
1984 2 1.49818 -4.84442 -4.32821 
1486 2 0.725588 -5.30489 -4.08762 
1563 2 1.41901 -5.21506 -3.54072 
673 1 1.78419 -5.7192 -4.65008 
64 1 3.37551 -5.56608 -3.48519 
931 1 3.39408 -5.33332 -4.31052 
131 1 4.2199 -4.94374 -4.0841 
1090 2 5.39236 -5.70095 -4.64118 
180 1 4.40929 -4.44457 -4.73116 
2034 2 5.43841 5.88061 -3.51143 
373 1 -5.68262 -3.81087 -5.0436 
339 1 5.81613 -4.27592 -4.03691 
75 1 -5.14398 -3.90735 -4.18291 
1559 2 -3.54066 -4.27259 -4.84287 
1931 2 -4.79317 -4.78934 -4.37513 
465 1 -4.43932 -3.91237 -3.72838 
622 1 -3.88783 -3.48878 -4.27739 
1425 2 -2.93102 -4.22789 -3.9816 
816 1 -2.42567 -2.97561 -3.44503 
1197 2 -1.07779 -2.74657 -5.74767 
1602 2 -2.1923 -3.81318 -4.47734 
1991 2 -1.87163 -3.71596 -3.80668 
855 1 -1.55125 -4.62894 -4.48286 
1848 2 -1.0803 -3.68627 -3.59859 
227 1 0.0525627 -4.36464 -3.93511 
819 1 0.364838 -3.77605 -4.70669 
20 1 1.28554 -3.86215 -4.01784 
136 1 2.033 -3.62438 -3.72501 
1198 2 3.04442 -3.93833 -4.7293 
2004 2 3.22357 -4.36931 -3.94512 
1019 1 2.79124 -3.21582 -3.34602 
1319 2 4.76474 -3.36167 -4.26454 
1592 2 4.01389 -3.99205 -3.61518 
284 1 5.03229 -4.66898 -4.0851 
1657 2 4.89953 -3.77106 -3.5999 
242 1 5.35354 -4.13667 -4.78596 
1995 2 5.1253 -3.05902 -4.97215 
1483 2 -5.75684 -2.7396 -4.76652 
1491 2 -5.0191 -2.49683 -4.64947 
1937 2 -5.22057 -2.98737 -3.88186 
784 1 -5.75936 -2.28402 -3.23718 
965 1 -3.27151 -3.28272 -3.55688 
1296 2 -3.483 -2.3015 -3.42066 
1465 2 -4.47661 -2.61979 -3.97315 
150 1 -2.17458 -2.66866 -4.36376 
151 1 -1.6228 -2.79538 -3.48709 
236 1 -0.38248 -2.10794 -3.98297 
677 1 -0.802767 -2.37871 -3.39293 
1881 2 -1.09543 -3.35714 -4.39574 
1581 2 -0.458085 -3.18501 -4.07641 
313 1 -0.0618436 -2.34693 -3.07019 
1894 2 0.495768 -2.96608 -4.04067 
1263 2 1.20453 -2.90353 -3.65293 
639 1 2.87778 -3.28933 -4.17068 
939 1 2.2108 -3.15004 -4.62948 
1947 2 1.70042 -2.42048 -4.02002 
485 1 3.6687 -2.83699 -3.95746 
928 1 4.42179 -2.57671 -3.68092 
1750 2 5.67 -3.19351 -3.95107 
385 1 4.75854 -2.25078 -4.50513 
550 1 5.21592 -2.39263 -3.54291 
179 1 -5.40181 -1.75965 -3.90614 
1030 2 -5.29756 -0.589325 -4.07475 
205 1 -5.00207 -1.86254 -3.2403 
161 1 -4.33656 -1.51643 -3.76906 
1664 2 -2.72645 -1.78252 -4.15618 
948 1 -3.52441 -1.12427 -3.90546 
1271 2 -2.55911 -1.45988 -4.80107 
1867 2 -2.69423 -2.02931 -3.36878 
717 1 -2.49912 -0.583749 -3.83181 
214 1 -3.07164 -0.574638 -4.37711 
1097 2 -1.94845 -1.57652 -3.89139 
1870 2 -1.41263 -1.09449 -4.52126 
599 1 0.352632 -1.91832 -3.77645 
1804 2 0.695746 -0.772812 -3.1323 
657 1 -0.0926176 -1.49003 -4.54009 
1223 2 -0.574812 -0.868008 -3.97225 
830 1 0.994229 -1.33429 -4.29437 
674 1 1.20745 -0.804122 -5.37438 
287 1 1.00687 -1.73022 -3.36193 
404 1 1.6329 -0.800689 -4.69468 
1363 2 2.59095 -2.10723 -4.4041 
421 1 1.71268 -1.41669 -3.84427 
691 1 2.59163 -1.26773 -3.14712 
1676 2 3.10531 -1.35859 -5.11979 
1738 2 4.10209 -1.50323 -3.95193 
403 1 5.50199 -1.97864 -4.20681 
1775 2 4.87125 -1.30409 -3.68322 
1634 2 5.66196 -0.888343 -3.70615 
1128 2 4.1011 -1.67627 -3.03124 
2048 2 -4.30935 -0.130703 -4.39773 
900 1 4.81176 -0.0535991 -4.16769 
1792 2 -4.48456 -0.485576 -3.63949 
1754 2 -3.58328 0.361308 -4.10408 
848 1 -1.68245 -0.267293 -4.02169 
1876 2 -2.72221 0.746493 -4.54149 
1104 2 -2.36832 0.527689 -3.56196 
254 1 -1.25238 0.301602 -4.51216 
704 1 -0.507576 0.374725 -3.93267 
1500 2 -0.114107 -0.49158 -4.57322 
1673 2 0.532318 -0.548267 -3.89319 
594 1 0.248536 0.346418 -3.73533 
517 1 0.60018 0.136546 -2.6946 
1570 2 0.862317 -0.0265 -4.70416 
1644 2 1.63103 -0.0794514 -4.05278 
2041 2 1.6617 0.39613 -4.70023 
1963 2 2.41114 0.261236 -4.30045 
427 1 2.42921 -1.05031 -4.16021 
1572 2 3.98477 0.927188 -4.34624 
42 1 3.19742 -0.757506 -3.71163 
2008 2 3.23059 0.510893 -3.92549 
125 1 4.2264 -0.429539 -3.63909 
32 1 5.21342 0.0198252 -3.26126 
278 1 -5.88636 0.360778 -3.66293 
1361 2 -5.27512 1.7711 -3.30645 
1728 2 -4.91904 2.20169 -4.26158 
697 1 -4.55978 1.21866 -4.79815 
230 1 -5.35957 1.24826 -5.51916 
824 1 -4.57735 0.959118 -3.94776 
752 1 -2.91584 1.97938 -4.8019 
903 1 -3.78541 1.38229 -4.10597 
1830 2 -1.94736 1.01212 -4.12611 
1999 2 -0.468366 1.85846 -4.95463 
1550 2 -1.14527 1.18672 -4.03547 
1962 2 -0.348741 1.49124 -3.95147 
1054 2 1.45633 2.30039 -3.96969 
80 1 0.753447 0.812368 -4.33668 
401 1 1.20243 1.38257 -5.09626 
1021 1 1.18458 0.671211 -3.57072 
551 1 1.60659 1.27525 -4.24149 
382 1 2.51062 1.68948 -4.18112 
760 1 3.46184 1.74042 -3.90966 
1172 2 3.88804 0.624721 -3.39345 
232 1 4.64392 1.78579 -2.85545 
1068 2 -5.67936 1.74266 -4.11206 
1696 2 4.79044 1.00017 -4.05198 
1777 2 5.56756 1.34137 -3.8279 
1861 2 -5.35917 2.26642 -4.96447 
298 1 -4.29192 3.39868 -3.78059 
882 1 -5.33571 3.23111 -4.18324 
631 1 5.41563 2.73346 -4.42364 
1959 2 -2.86118 3.00932 -4.31972 
1512 2 -3.87297 2.47392 -4.23315 
1092 2 -3.55125 2.31392 -3.56503 
1794 2 -2.72903 2.71297 -3.43173 
1175 2 -2.13214 3.2193 -4.21909 
1015 1 -2.69657 1.76819 -3.84157 
491 1 -1.13853 3.05774 -5.33099 
982 1 -1.93587 2.08964 -4.10326 
709 1 -1.31483 2.74982 -4.38243 
478 1 0.141183 2.27905 -2.93112 
1979 2 0.873783 2.31567 -4.80674 
1769 2 2.66572 2.28886 -2.92288 
561 1 0.675523 2.84617 -3.19386 
1653 2 2.72273 2.94043 -4.60917 
1461 2 3.09268 2.59645 -3.67964 
869 1 2.97552 2.01276 -4.74665 
1105 2 3.83756 2.93283 -3.39054 
1011 1 4.19914 1.87096 -3.63041 
2020 2 3.68024 3.24542 -4.23022 
2039 2 4.64493 3.34352 -3.57109 
726 1 4.70334 2.33531 -4.12396 
731 1 -5.85468 2.76477 -3.61328 
369 1 -4.6889 3.5363 -4.58457 
1278 2 -4.82471 4.52599 -4.11163 
45 1 -3.57171 3.73755 -4.02567 
322 1 -3.71069 3.46648 -3.10974 
460 1 -2.88775 3.7175 -3.66353 
772 1 -2.15545 4.19104 -3.60306 
276 1 -1.25784 4.41305 -3.31882 
1142 2 -1.26601 3.66317 -3.88483 
1625 2 -0.395887 3.89234 -4.04275 
1247 2 -0.963637 3.22365 -3.117 
552 1 -0.173155 2.66585 -3.84202 
1593 2 0.427545 4.0355 -3.82084 
2040 2 1.16547 4.3595 -4.27354 
448 1 0.796172 3.09257 -4.17369 
1267 2 1.40406 4.34304 -3.45201 
775 1 2.53226 3.73961 -3.90713 
896 1 1.54757 3.24282 -3.51628 
256 1 2.3235 3.37828 -3.10547 
143 1 3.49248 4.26424 -3.91338 
432 1 3.71506 4.51755 -4.77934 
34 1 4.01152 4.14145 -3.20074 
1779 2 5.41115 3.97344 -4.61348 
1977 2 -5.66585 4.13483 -4.19473 
825 1 -5.15646 5.17297 -3.29678 
662 1 5.87781 5.11377 -3.87628 
805 1 -4.17333 5.68674 -3.71877 
1417 2 -3.97762 4.69554 -3.86777 
453 1 -4.29611 5.26948 -2.96697 
1138 2 -3.34158 5.21196 -4.29281 
1048 2 -4.40453 4.24918 -3.12854 
1413 2 -3.44447 4.6731 -3.30024 
1038 2 -1.62374 5.54047 -3.44067 
871 1 -0.476466 4.64714 -2.96799 
1191 2 -0.897987 5.56011 -2.79462 
123 1 -1.48461 4.72754 -4.18152 
41 1 -0.670379 4.98995 -3.97103 
959 1 1.86216 5.75949 -3.89051 
1042 2 1.97623 4.73446 -3.92703 
165 1 0.759144 5.41798 -4.06473 
1764 2 2.76876 5.087 -4.49788 
1926 2 2.43839 4.4561 -3.26306 
43 1 2.62048 -5.86026 -3.83393 
1318 2 3.11442 4.98098 -3.59094 
1875 2 3.70831 5.47774 -4.07013 
1100 2 4.38687 5.5595 -3.42522 
1846 2 4.79052 5.92375 -4.07933 
370 1 4.2811 4.61773 -4.23138 
835 1 5.09936 4.86786 -4.24641 
181 1 4.88523 4.59859 -3.24923 
1192 2 -5.641 -5.90137 -3.12671 
1126 2 -5.00906 -5.65082 -2.53977 
1604 2 -4.94488 5.77522 -1.77583 
273 1 -5.07267 -4.60002 -2.32737 
1272 2 -4.23349 -5.6126 -2.3483 
1534 2 -4.37279 -5.14685 -3.3371 
1548 2 -3.54211 -5.0992 -2.69699 
119 1 -2.62396 -5.89948 -2.82617 
260 1 -0.971575 -4.93941 -3.19166 
229 1 -1.40586 -5.67706 -2.18808 
1014 1 -1.79699 -5.57929 -2.85922 
1928 2 -0.0760326 5.85948 -2.68555 
1543 2 0.710976 5.88554 -2.37155 
295 1 0.197965 -5.06313 -2.30659 
1344 2 0.746883 -5.52278 -3.20381 
1957 2 1.44316 -5.5842 -2.65477 
1828 2 2.16374 -4.96151 -3.38839 
1081 2 2.40606 -4.53457 -4.30329 
2017 2 3.02976 -4.60693 -3.16232 
1749 2 3.09217 -5.05124 -2.45976 
1530 2 2.8657 -5.43749 -1.51973 
1765 2 3.93252 -4.88733 -2.02672 
667 1 4.26861 -5.22282 -3.27243 
847 1 3.84714 -5.86446 -2.75743 
141 1 3.21427 5.63507 -2.02476 
955 1 4.84832 -5.21147 -2.49994 
19 1 5.30441 -4.97471 -3.24139 
2010 2 -5.40998 -3.56537 -2.26195 
251 1 -4.94297 -4.28432 -3.13605 
1851 2 -4.50867 -3.18662 -2.27723 
1871 2 5.8677 -3.586 -3.09079 
269 1 -4.21996 -4.19783 -2.53795 
441 1 -3.81778 -3.77934 -3.034 
2000 2 -3.52452 -4.65124 -3.51327 
1046 2 -2.2452 -4.22201 -3.28514 
634 1 -3.01447 -3.5591 -2.82039 
1079 2 -1.32985 -4.07296 -2.83977 
1896 2 -0.534954 -3.82684 -2.83107 
416 1 -0.154879 -4.64169 -3.15243 
1231 2 -0.135633 -3.39604 -3.37378 
249 1 0.812343 -4.23755 -3.38715 
938 1 1.67387 -4.13734 -3.08109 
954 1 0.89249 -4.52183 -2.67932 
1878 2 1.50281 -3.13077 -2.66851 
981 1 3.39979 -3.63221 -2.19163 
934 1 2.43291 -3.78151 -2.90249 
1232 2 3.87997 -4.35194 -2.66272 
100 1 3.44634 -4.08781 -1.44077 
1836 2 4.82896 -3.96537 -2.83943 
878 1 -5.78824 -4.66626 -3.12698 
1655 2 5.55913 -4.00492 -2.39306 
1817 2 -5.1299 -3.21741 -2.97526 
471 1 -5.63453 -2.46721 -2.46898 
754 1 5.2968 -2.6969 -2.71984 
1545 2 -4.33779 -2.76786 -3.04542 
1902 2 -2.81744 -2.23288 -2.56776 
1442 2 -3.59299 -2.71802 -2.57345 
753 1 -2.24718 -3.31458 -2.5802 
1908 2 -1.95501 -1.94375 -2.9822 
1537 2 -1.46438 -2.02324 -2.19113 
411 1 -0.604321 -2.74138 -2.38106 
398 1 -1.38408 -2.94742 -2.53899 
1457 2 0.773784 -3.13168 -3.04495 
1942 2 0.275841 -3.63394 -2.4599 
844 1 0.677832 -2.25492 -2.60643 
597 1 1.44477 -1.96648 -2.37351 
1580 2 1.88914 -2.60501 -3.29135 
377 1 2.45244 -1.68885 -2.1628 
1645 2 3.2728 -2.29542 -2.68583 
1923 2 2.61871 -2.18713 -3.56896 
1787 2 2.33515 -2.78201 -2.49701 
1946 2 3.33706 -1.6774 -4.32398 
1001 1 3.53673 -3.19741 -3.07875 
352 1 4.14963 -3.29487 -2.17627 
1641 2 4.05467 -2.12797 -2.27372 
914 1 4.29595 -2.97115 -2.92189 
311 1 4.9904 -3.20577 -2.1023 
140 1 -4.76168 -2.05963 -2.4762 
2035 2 -5.52989 -0.926137 -3.26685 
636 1 -3.81088 -1.728 -2.2175 
344 1 -3.05561 -1.34635 -2.122 
592 1 -4.11576 -1.49033 -2.88809 
917 1 -3.34199 -1.21202 -3.01805 
499 1 -1.76008 -0.577056 -3.05606 
37 1 -2.56274 -0.993185 -3.01188 
1573 2 -1.24166 -1.41781 -3.50724 
1345 2 -0.177946 -1.05903 -3.26078 
1456 2 -0.934775 -1.57476 -2.827 
234 1 -1.48856 -0.812325 -2.17282 
1517 2 0.0137953 -1.4282 -2.55138 
1568 2 0.793445 -1.09293 -2.34486 
1057 2 1.42736 -0.417759 -3.14263 
1832 2 2.12402 -0.471447 -2.59263 
705 1 1.93361 -1.59666 -2.92629 
640 1 3.10804 -1.23891 -2.25783 
867 1 2.99035 -1.74333 -1.34765 
1259 2 3.50048 -2.0279 -3.4639 
700 1 3.53317 -0.850044 -3.03911 
116 1 3.68118 -1.40561 -1.63907 
1299 2 4.92428 -1.78192 -2.32591 
1237 2 5.29981 -1.39014 -2.93022 
1279 2 -5.78914 -1.35884 -2.67498 
1163 2 -4.88779 -0.592601 -2.86922 
299 1 -5.16787 0.268393 -2.63889 
708 1 -5.93329 -0.0126486 -2.89247 
397 1 -5.17296 0.457379 -3.63335 
1184 2 -3.79897 -0.0896796 -3.35151 
1350 2 -4.04647 -0.484369 -2.64852 
94 1 -4.37125 0.807876 -3.03092 
1206 2 -3.17497 -0.253276 -2.31415 
1310 2 -2.97393 0.165543 -3.21912 
1025 2 -2.24898 0.238185 -2.58055 
1834 2 -1.3402 0.514118 -2.55932 
789 1 -1.06259 -0.23206 -3.37596 
615 1 -0.908039 -0.582341 -2.60814 
886 1 -0.243926 -0.119685 -3.06001 
121 1 0.457357 -0.246781 -1.77707 
90 1 1.33663 0.487374 -2.77531 
842 1 2.25018 0.767392 -2.86435 
749 1 1.309 0.118291 -1.96475 
1952 2 2.44686 -0.112403 -3.45809 
1529 2 3.16007 0.198783 -3.0297 
198 1 4.15984 -0.877114 -2.07379 
1220 2 4.39959 0.533099 -2.70391 
2027 2 3.82603 0.251404 -2.24147 
241 1 4.3223 -0.594049 -2.84084 
297 1 5.082 -0.398526 -2.51991 
1468 2 5.66445 0.87261 -2.31424 
1654 2 -3.84401 2.02827 -2.83263 
1282 2 -4.50889 1.68303 -2.64678 
1320 2 -5.81899 1.24415 -2.99696 
912 1 -5.30059 0.934264 -4.47274 
1839 2 -4.48314 2.18797 -3.48706 
1803 2 -3.48276 1.76813 -1.96626 
164 1 -3.20626 1.22602 -3.41349 
613 1 -2.50554 1.01281 -2.14311 
686 1 -3.33901 1.06618 -2.70311 
310 1 -2.46316 1.50403 -2.95165 
719 1 -1.68251 1.88194 -3.19674 
1643 2 -1.59169 0.823383 -3.25469 
494 1 -1.69723 1.43922 -2.23811 
2043 2 -0.49956 0.535968 -2.28762 
1436 2 -0.692583 0.925427 -3.05712 
1642 2 0.815519 1.67983 -3.40923 
1158 2 1.76028 1.9883 -3.13686 
1683 2 0.119454 1.13761 -3.23104 
895 1 2.11975 1.1061 -3.61326 
1050 2 1.15628 1.50434 -2.36673 
447 1 2.96824 1.28892 -3.30202 
894 1 2.93752 0.963573 -2.32715 
1825 2 2.92131 2.05334 -1.98178 
621 1 3.63785 1.523 -2.91251 
944 1 5.21689 1.87906 -2.21107 
243 1 3.6785 1.21556 -1.95847 
1986 2 5.06644 0.949778 -3.18988 
811 1 -5.79686 2.06831 -1.86085 
171 1 5.18854 2.27224 -3.39108 
2030 2 -5.29672 1.29422 -2.19634 
204 1 -4.89294 3.06834 -3.24362 
351 1 -5.15376 2.48948 -2.5075 
2021 2 -2.90877 2.3909 -2.6472 
568 1 -3.36287 3.27833 -2.31144 
879 1 -4.26089 2.86601 -2.43547 
1689 2 -2.07206 2.56381 -2.34225 
1415 2 -1.85627 2.90515 -3.21392 
1485 2 -1.16628 2.76428 -2.26812 
1268 2 -0.454357 2.83745 -1.6514 
301 1 -0.804447 1.91155 -2.78024 
593 1 -0.94603 2.31889 -3.68258 
208 1 -0.12839 1.83994 -2.07343 
1183 2 -0.311016 3.11687 -2.53549 
660 1 0.743501 2.4976 -2.07633 
1994 2 2.0789 1.68653 -2.27917 
747 1 1.6198 2.5228 -1.68469 
1065 2 3.5569 2.42343 -2.6505 
828 1 2.28416 2.98741 -2.27973 
1686 2 4.42695 2.79437 -2.65879 
1786 2 5.22457 3.14677 -2.87487 
1026 2 4.99235 2.42385 -0.847567 
702 1 5.80312 2.25328 -2.77085 
1522 2 4.79957 2.75112 -1.9031 
1636 2 5.56211 2.8274 -1.38129 
1670 2 -5.24588 4.1313 -3.31097 
1072 2 5.96953 3.52212 -2.90329 
1333 2 -4.57458 3.9744 -2.21061 
1971 2 -3.64779 4.32756 -2.45822 
381 1 -2.77535 3.61248 -2.85941 
111 1 -2.03827 3.92285 -2.66861 
26 1 -1.58629 3.62869 -1.88443 
520 1 -2.53535 3.361 -2.06747 
17 1 -1.20635 4.08955 -2.59139 
1668 2 -0.00426698 3.63663 -3.15146 
516 1 0.125587 4.49738 -2.36633 
1499 2 1.94177 4.22617 -2.62095 
1071 2 0.825987 3.91344 -2.95921 
1869 2 1.31477 3.841 -2.13429 
937 1 1.43116 2.83546 -2.61761 
1428 2 2.45792 4.12385 -1.77334 
1854 2 2.92284 4.50991 -2.47855 
906 1 3.25729 3.62993 -3.01382 
641 1 4.26911 3.79324 -2.35915 
1662 2 5.65865 3.02992 -2.16397 
1349 2 5.39664 3.68558 -3.78912 
918 1 5.80878 4.34093 -2.2001 
650 1 5.02123 3.95313 -1.66429 
742 1 5.06092 4.10905 -2.51519 
946 1 5.87703 4.74898 -3.01496 
355 1 -5.36458 4.35494 -1.57753 
443 1 -5.28792 4.8977 -2.48649 
579 1 -3.7925 5.40176 -2.25321 
961 1 -4.44257 4.90714 -1.90912 
1008 1 -3.40776 5.83417 -3.09838 
1127 2 -2.75418 5.02667 -3.47407 
1419 2 -2.84568 4.62884 -2.44902 
589 1 -2.97229 5.61294 -2.12884 
1339 2 -1.46566 5.10356 -2.34963 
1575 2 -2.05107 5.04881 -2.93938 
612 1 0.148376 5.10141 -3.60039 
361 1 0.654327 5.01194 -2.85066 
1265 2 -0.751218 5.1906 -1.83233 
1136 2 0.0913415 5.60051 -1.76011 
736 1 1.24718 5.39225 -3.41865 
564 1 0.929841 4.77994 -1.95091 
343 1 1.55121 5.11684 -2.39175 
182 1 2.89895 5.69281 -2.84389 
487 1 2.1102 5.50651 -3.04098 
422 1 2.39171 5.37171 -2.0906 
1405 2 3.7531 4.99817 -2.86271 
1489 2 4.48923 5.09594 -2.35826 
2016 2 5.88383 5.64267 -2.22966 
1699 2 5.06146 5.59943 -2.69907 
798 1 5.80723 -5.08482 -2.25079 
504 1 -5.30349 -4.96288 -1.48123 
1261 2 -4.06978 -5.74702 -1.51124 
1285 2 -3.09469 -5.33702 -1.82227 
1312 2 -3.29678 -5.6939 -0.998855 
991 1 -4.48956 -4.83612 -1.19103 
1454 2 -2.37924 -5.00201 -1.4018 
1047 2 -2.84082 -4.69335 -2.82585 
326 1 -1.46233 -5.83919 -1.41309 
1477 2 -1.34363 -4.70446 -1.32562 
305 1 -0.709476 -5.33403 -2.42297 
672 1 -0.429073 -5.47035 -1.46275 
317 1 0.415998 -5.09346 -1.35146 
459 1 1.06411 -4.76536 -1.90957 
257 1 1.73678 -4.61082 -1.36167 
1915 2 2.23305 -5.20647 -2.53443 
1859 2 2.12919 -5.58458 -1.71815 
1129 2 4.52921 -4.85776 -1.11546 
1487 2 3.65089 -5.17737 -1.254 
802 1 5.8242 -5.43867 -1.39432 
153 1 4.99966 -5.70016 -1.60095 
1521 2 5.3866 -4.70973 -0.821841 
542 1 5.07095 5.82512 -0.699441 
1948 2 -5.55744 -3.99866 -1.38398 
1449 2 -4.68951 -3.68469 -1.39659 
524 1 -4.16574 -4.62802 -1.88302 
2007 2 -3.90615 -3.15661 -1.53871 
71 1 -3.42082 -4.04287 -2.00053 
21 1 -3.3832 -4.3252 -1.26595 
890 1 -2.61496 -3.75872 -1.83752 
907 1 -2.01678 -4.25993 -0.131732 
1394 2 -2.1742 -4.68275 -2.31792 
1783 2 -1.28685 -4.3652 -2.159 
875 1 -1.63617 -3.41227 -1.83463 
324 1 -1.77832 -3.72762 -0.938986 
526 1 -0.902259 -3.63408 -0.816062 
1613 2 -0.418479 -4.15845 -1.97565 
1985 2 0.188936 -4.27045 -0.726573 
1748 2 0.489742 -3.86986 -1.46083 
569 1 1.78488 -4.18721 -2.2662 
1973 2 2.17687 -3.22599 -1.85095 
1658 2 1.10707 -3.52039 -1.91437 
661 1 2.57369 -4.20325 -2.03666 
328 1 3.9481 -4.09624 -0.695012 
1066 2 2.54825 -3.35031 -0.95526 
321 1 4.28056 -3.65743 -1.46355 
522 1 4.69844 -3.90949 -0.514322 
1737 2 4.69921 -4.38809 -1.93734 
1844 2 5.52153 -4.27105 -1.57162 
602 1 5.10059 -3.41691 -1.18539 
968 1 5.82646 -2.90011 -1.83681 
532 1 -4.97596 -2.43777 -1.69484 
58 1 -5.126 -2.87407 -0.866177 
734 1 -4.13254 -2.10579 -1.449 
291 1 -4.17685 -2.53089 -0.696611 
1478 2 -3.15042 -2.83249 -1.78205 
1911 2 -2.29186 -2.30743 -2.11459 
1993 2 -3.13632 -3.22319 -1.01923 
1077 2 -2.3349 -2.78099 -1.48441 
986 1 -0.810225 -3.20507 -1.6604 
1781 2 -0.543018 -1.89441 -1.86322 
1574 2 -1.41576 -2.32572 -1.44717 
388 1 0.144833 -2.68529 -2.0139 
998 1 1.00613 -2.52086 -1.84116 
11 1 -0.174469 -3.07969 -1.14773 
1289 2 -0.595185 -2.19401 -1.02873 
566 1 1.43948 -2.51171 -0.904662 
106 1 1.94402 -2.18989 -1.65847 
347 1 0.686394 -2.641 -0.945919 
626 1 2.32281 -2.17644 -0.959929 
1708 2 3.11838 -2.73752 -1.82412 
629 1 3.02574 -2.16279 -0.377445 
1167 2 3.92449 -2.68412 -1.4166 
1996 2 4.68537 -2.68009 -0.668538 
213 1 -6.00017 -3.27641 -0.888659 
1492 2 5.48357 -2.13671 -1.26851 
1978 2 -4.38224 -0.794441 -1.91893 
1940 2 -5.04298 -1.49432 -1.40635 
1352 2 -4.28286 -1.09961 -1.14841 
1393 2 -5.02152 -1.14028 -2.23906 
1826 2 -3.52776 -0.629687 -1.5261 
1028 2 -3.76643 -1.25264 -0.509146 
1972 2 -2.6575 -0.594147 -1.50093 
767 1 -3.43999 -1.89664 -1.26608 
548 1 -2.15214 -1.23536 -2.26201 
419 1 -0.641428 -0.96861 -0.75954 
963 1 -1.79706 -1.44535 -1.3538 
252 1 -1.49289 -1.48461 -0.574707 
1635 2 0.263187 -1.66376 -1.51329 
1086 2 0.19247 -1.84014 -0.730082 
1682 2 1.0209 -1.34045 -1.46478 
630 1 -0.964662 -0.928678 -1.48315 
2046 2 1.57163 -0.825878 -2.22138 
1659 2 1.89692 -1.0677 -1.53954 
1819 2 2.55577 -0.695084 -1.51798 
1505 2 2.86983 -0.257949 -2.38178 
846 1 3.68364 -1.92522 -0.703262 
1916 2 2.87698 -1.03285 -0.601572 
518 1 4.28901 -1.33779 -1.06033 
279 1 4.7786 -0.92735 -1.66857 
1286 2 5.76066 -1.67382 -1.92719 
1148 2 4.65102 -2.25745 -1.50167 
958 1 5.49437 -0.75556 -1.32903 
654 1 5.68044 -0.566101 -2.11638 
737 1 -5.56917 -0.733695 -1.2206 
489 1 -4.58443 0.335321 -2.10936 
818 1 -3.86366 0.582428 -2.22814 
472 1 -3.94173 0.1781 -1.16474 
259 1 -3.13951 0.211231 -0.912233 
921 1 -3.07258 0.670526 -1.6532 
1432 2 -2.0347 -0.0626166 -1.77553 
1893 2 -2.10369 -0.628929 -0.739511 
189 1 -2.38977 0.348 -0.389959 
1589 2 -1.09218 0.253935 -1.72316 
776 1 -0.243183 -0.59982 -2.0437 
1067 2 -0.262454 0.378568 -1.40081 
1386 2 0.463158 0.84673 -1.51571 
502 1 0.0571726 -0.655117 -1.08699 
625 1 1.09139 -0.240976 -1.27344 
874 1 2.31124 0.188307 -1.25204 
1373 2 1.15659 0.798315 -0.868227 
408 1 2.0592 0.591421 -2.0165 
870 1 3.19312 0.334892 -0.533867 
1858 2 3.39086 -0.303431 -1.58022 
1059 2 4.93839 0.503678 -2.1724 
1897 2 3.73635 -0.601117 -0.705199 
692 1 -5.54291 -0.268582 -2.01716 
1564 2 -5.71273 0.601052 -1.62297 
1508 2 4.39714 0.0271746 -1.43379 
446 1 -4.83815 2.42205 -1.60769 
2038 2 -5.15529 0.981202 -1.29579 
1229 2 -4.53447 1.38398 -1.68036 
1003 1 -5.50869 1.91579 -0.946357 
1720 2 -3.73862 1.43685 -1.24366 
2047 2 -2.95621 1.55414 -1.09307 
1981 2 -1.60611 1.99287 -0.681842 
115 1 -2.28451 0.723447 -1.1062 
1727 2 -2.33193 1.95073 -0.979446 
585 1 -1.5178 1.16981 -1.47218 
134 1 -0.663234 1.32002 -1.17166 
240 1 -1.01256 1.69454 -2.02666 
1187 2 0.273337 0.975958 -2.44594 
823 1 0.183778 1.83394 -1.30944 
614 1 0.0555617 1.39834 -0.591984 
1681 2 1.2921 1.15826 -1.62418 
1297 2 1.96373 1.47504 -1.36294 
50 1 2.90631 0.739313 -1.48704 
1134 2 2.7679 1.79841 -1.26289 
1340 2 3.79358 1.57613 -0.0554944 
194 1 4.40104 1.55618 -2.1012 
783 1 3.7545 0.76958 -1.17217 
95 1 5.77808 1.253 -0.708773 
761 1 5.52797 1.58532 -1.31007 
1000 1 -4.47825 2.1879 -0.735537 
966 1 -3.94721 2.6133 -1.63662 
1330 2 -5.40669 3.22267 -1.59877 
294 1 -3.32866 3.03776 -1.39943 
739 1 -3.67098 2.49025 -0.706077 
1679 2 -2.71424 1.93755 -1.7878 
16 1 -2.65635 2.97845 -1.16989 
567 1 -2.84802 2.66863 -0.414804 
1304 2 -1.70825 2.39332 -1.54121 
1983 2 -0.888704 2.31144 -1.15932 
2023 2 -0.531216 2.36784 -0.458507 
1616 2 0.146373 2.87626 -1.16256 
1974 2 0.796258 2.9359 -0.603566 
608 1 0.949668 1.78042 -0.315552 
44 1 0.960021 2.12148 -1.17665 
114 1 1.76819 2.00342 -0.0492448 
843 1 1.96211 2.34296 -0.742365 
1099 2 1.59137 3.35219 -0.459343 
1838 2 3.79404 2.33445 -1.81524 
183 1 2.77155 2.71807 -0.690484 
945 1 2.48711 2.85073 -1.46883 
510 1 3.47957 3.09034 -1.16551 
1368 2 3.55388 1.7466 -0.867512 
379 1 4.14992 3.10637 -0.582432 
582 1 3.37394 3.33469 -2.10189 
1866 2 4.21872 2.08708 -0.873051 
1811 2 -5.9044 2.71965 -0.49415 
1554 2 -5.32541 3.53584 -2.38011 
993 1 5.86813 3.94638 -1.0746 
506 1 -4.55364 4.61061 -1.12701 
13 1 -5.19335 4.12955 -0.597142 
1757 2 -3.80176 3.95506 -1.66791 
1056 2 -4.60534 3.52536 -1.40369 
1335 2 -3.86801 3.70385 -0.866445 
1814 2 -3.0251 3.86326 -0.623278 
1287 2 -3.01903 4.25578 -1.56696 
925 1 -1.83115 3.27781 -0.983682 
1992 2 -2.15378 4.62393 -1.75363 
2033 2 -2.27376 4.1862 -1.0794 
733 1 -0.522902 4.0487 -1.76535 
418 1 -0.878212 3.63792 -1.18095 
1406 2 0.396588 3.42957 -1.94905 
224 1 -0.0610298 3.78224 -0.668122 
627 1 0.174725 4.26242 -1.35715 
905 1 0.982459 4.47007 -1.19371 
985 1 0.703281 4.1599 -0.462112 
1997 2 1.10383 3.52876 -1.3054 
652 1 1.64179 4.60099 -0.499436 
1913 2 2.01723 3.7044 -1.18933 
1161 2 3.2357 4.21241 -1.51066 
1610 2 2.63662 3.75718 -0.645464 
1234 2 3.72939 4.588 -1.97803 
1178 2 3.83137 4.35631 -0.99427 
1842 2 3.52207 3.93361 -0.30817 
690 1 4.21049 3.43744 -1.46895 
258 1 4.96334 3.62567 -0.685794 