ITEM: TIMESTEP
4300
ITEM: NUMBER OF ATOMS
2048
ITEM: BOX BOUNDS pp pp pp
-5.9456299734968816e+00 5.9456299734968816e+00
-5.9456299734968816e+00 5.9456299734968816e+00
-5.9456299734968816e+00 5.9456299734968816e+00
ITEM: ATOMS id type x y z 
514 1 -5.1795 -5.5988 -5.79737 
1661 2 -5.4978 -4.63263 -5.33814 
1307 2 5.55087 -5.04171 -5.58423 
29 1 -3.29778 -5.18031 -5.50703 
1633 2 -4.79161 -4.89428 -4.58207 
554 1 -4.32462 -5.62123 -5.01476 
3 1 -2.51679 -5.05046 -4.95458 
855 1 -1.96363 -4.56803 -5.45427 
1151 2 -1.88498 5.8851 -4.77012 
1291 2 -1.26061 -5.7407 -4.26184 
1138 2 -2.00492 -5.55072 -5.54761 
1029 2 -1.08309 -5.44191 -5.06466 
2029 2 -0.000791565 -4.97747 -5.16828 
1486 2 -0.440878 -5.38601 -4.46596 
1260 2 0.82711 -4.88159 -4.7468 
822 1 1.00127 -5.69707 -5.48873 
931 1 1.88431 -5.42796 -5.24473 
434 1 2.66505 -5.16188 -5.25034 
476 1 3.4694 -4.62858 -5.58524 
1677 2 3.71977 -5.81134 -5.47926 
666 1 4.28287 -4.48371 -5.00599 
1846 2 3.03623 5.84358 -5.32145 
1604 2 4.5499 -5.46453 -4.966 
1799 2 5.37016 -5.25374 -4.76348 
1931 2 4.72164 -5.21764 -5.74845 
19 1 -5.76838 -3.7667 -5.11347 
273 1 -4.91426 -3.47952 -4.89054 
1548 2 -3.86046 -4.19837 -5.17889 
1103 2 -4.64779 -4.57535 -5.43498 
1046 2 -3.46497 -3.86747 -5.85262 
1663 2 -2.45907 -3.52208 -5.66318 
1261 2 -2.96254 -4.01619 -4.86972 
1402 2 -2.13164 -3.66502 -4.64665 
274 1 -1.30495 -4.45271 -4.96454 
247 1 -1.14844 -3.97569 -5.79185 
467 1 -0.646371 -4.31694 -4.49636 
902 1 -0.32937 -3.84274 -5.28673 
1694 2 0.566672 -4.62756 -5.8145 
1705 2 1.4798 -4.44458 -4.82426 
1173 2 1.4569 -4.28736 -5.67483 
202 1 0.501696 -3.52881 -5.54364 
1995 2 2.24328 -4.27862 -4.93988 
1129 2 3.13557 -3.68949 -5.23941 
1466 2 2.3733 -3.85835 -5.82584 
723 1 3.45713 -4.87203 -4.86721 
1929 2 3.94771 -3.38909 -5.13627 
429 1 4.35427 -4.18557 -5.70474 
555 1 5.17432 -4.07933 -5.23955 
2032 2 4.778 -3.19782 -4.77981 
675 1 5.61201 -3.7317 5.90075 
373 1 -4.63087 -3.33089 -5.75379 
1588 2 -5.04468 -2.49144 -4.94106 
1341 2 -4.24214 -2.03794 -5.06293 
269 1 -3.86973 -3.11952 -5.1677 
196 1 -2.81117 -2.71477 -5.30099 
151 1 -2.09654 -2.38054 -5.02478 
391 1 -2.55678 -2.3752 -5.91779 
1763 2 -0.753445 -2.91346 -5.1729 
1379 2 -1.55131 -3.1585 -5.45947 
236 1 -1.37233 -2.06875 -4.81488 
1270 2 -0.483826 -2.65248 5.92899 
1820 2 0.177729 -2.28086 -5.94542 
1255 2 0.126137 -2.67466 -5.11774 
1525 2 0.777272 -1.87369 5.72907 
122 1 1.28907 -3.30923 -5.52857 
1380 2 0.998003 -2.14258 -5.2605 
1555 2 1.92401 -1.97114 -4.67886 
975 1 1.96523 -2.94801 -5.33764 
475 1 2.98496 -2.32445 -5.70581 
939 1 3.80122 -2.20681 -5.49702 
1070 2 -6.01342 -2.53213 -5.29978 
1475 2 5.06427 -2.87997 -5.56939 
730 1 -5.88621 -1.37193 -5.42944 
55 1 -4.89108 -0.992181 -5.38155 
543 1 -5.42857 -1.46697 -4.61732 
1904 2 -4.49729 -1.85947 -5.9202 
1635 2 -3.51783 -1.68353 -5.54842 
1908 2 -2.70546 -1.40309 -5.26643 
1682 2 -3.17494 -1.82591 -4.49828 
1345 2 -2.26565 -1.34163 -4.52341 
1248 2 -2.12855 -0.801468 -5.96212 
402 1 -1.8524 -1.92501 -5.70115 
11 1 -0.967663 -1.7383 -5.65548 
1569 2 -1.60233 -1.1134 -5.17907 
595 1 -0.224356 -1.29823 -5.53678 
35 1 0.554646 -1.30785 -5.15819 
578 1 0.586031 -0.826481 5.89827 
8 1 1.41304 -0.815617 -5.09313 
1964 2 1.56489 -1.82717 -5.59826 
2048 2 2.51621 -1.49272 -5.47089 
1030 2 3.42264 -1.26451 -5.0805 
406 1 4.60029 -1.97586 -5.15056 
1202 2 3.40153 -0.866124 5.94296 
1623 2 4.33962 -1.08327 -4.81219 
214 1 5.4713 -1.81647 -4.83604 
972 1 5.20255 -1.47201 -5.87743 
1615 2 -5.24048 -0.0985371 -5.1724 
1797 2 -5.29643 0.380653 5.89992 
374 1 -3.23873 -0.388666 -5.60749 
1343 2 -4.45149 0.603507 -5.86151 
505 1 -3.90026 -0.69381 -5.03389 
749 1 -2.55424 -0.016322 -5.57083 
767 1 -2.96303 -0.519975 -4.79703 
37 1 -1.28145 0.272624 -4.93797 
789 1 -0.460732 0.624726 -4.9629 
827 1 -1.85153 0.374393 -5.6593 
1537 2 -0.844605 -0.602477 -4.89592 
1478 2 0.309179 -0.292915 -5.13259 
625 1 0.246542 0.865665 -4.9669 
1852 2 1.06985 0.363883 -5.66312 
1975 2 1.88755 0.573411 -5.55279 
1963 2 0.986688 0.109516 -4.81155 
640 1 2.29687 -0.649839 -4.76369 
560 1 2.17151 -0.462117 -5.59817 
866 1 2.89015 -0.0147469 -5.60697 
1456 2 1.94249 0.310731 -4.61314 
1224 2 4.27387 -0.758808 -5.49862 
700 1 3.84246 0.147852 -5.36762 
818 1 4.66815 0.529491 -5.43487 
2001 2 5.14531 -0.731254 -4.89967 
1634 2 5.8823 -0.307466 -5.28821 
302 1 4.75979 0.239707 -4.63929 
420 1 -5.60487 1.06276 -5.40878 
656 1 -4.7064 1.28298 -5.31795 
1443 2 -3.63294 0.580465 -5.50916 
980 1 -3.79669 1.53601 -5.01168 
903 1 -3.14005 1.87335 -4.46869 
1050 2 -2.76364 1.05873 -5.17246 
1576 2 -2.16279 1.51207 -5.89511 
1054 2 -1.9438 1.31151 -4.86845 
1264 2 -3.05072 1.27817 5.81624 
1386 2 -1.3774 1.74702 -5.64876 
80 1 -0.0588292 1.07353 -5.75647 
895 1 0.695291 1.34956 -5.35504 
254 1 0.698739 1.67818 5.67426 
63 1 1.49474 1.7577 -5.829 
760 1 1.76058 1.52468 -5.02593 
1910 2 2.65557 0.742561 -5.05363 
621 1 2.6271 1.99721 -5.30958 
1882 2 3.39551 1.19909 -5.69036 
1226 2 4.13853 1.43519 -5.54647 
1470 2 3.65459 0.959766 -4.78397 
1172 2 4.90573 1.60035 -5.03617 
915 1 5.5561 0.684701 -5.12529 
1729 2 5.13127 2.01848 -5.73499 
1377 2 -5.23145 2.41323 -5.4827 
1716 2 -4.4074 2.62975 -5.40757 
1482 2 -3.62589 3.15009 -5.47386 
820 1 -3.1976 2.15189 -5.50062 
1015 1 -2.42777 2.4267 -5.45329 
719 1 -2.35285 2.17226 -4.62386 
494 1 -1.67441 2.62357 -5.10171 
72 1 -0.894312 2.9385 -4.71825 
1063 2 -0.288834 1.93605 -5.13315 
1639 2 0.437096 2.52385 -5.40117 
56 1 -0.0955176 3.30403 -5.01721 
852 1 -0.820684 3.21886 -5.55728 
1653 2 1.20349 2.78662 -5.71007 
380 1 2.46469 2.165 5.7368 
1628 2 2.14119 2.81486 -5.0777 
1979 2 2.97161 3.10753 -4.99814 
396 1 3.54788 2.32004 -5.51366 
204 1 4.05299 2.35849 -4.79631 
800 1 4.109 3.00964 5.67191 
1396 2 5.79282 2.0384 -5.17939 
1403 2 5.89456 2.56901 -5.94018 
445 1 4.7228 2.96214 -5.59659 
984 1 4.78397 2.6841 -4.75395 
869 1 5.48208 3.04034 -4.86264 
188 1 -5.61912 3.49951 -5.22911 
92 1 -4.71436 4.07109 -5.74702 
989 1 -4.92156 3.59491 -4.87964 
83 1 -3.84872 4.46614 5.87027 
607 1 -4.06007 3.81723 -5.00085 
1614 2 -3.3047 3.63739 5.89164 
45 1 -3.02835 4.51673 -5.46756 
1934 2 -2.53529 3.61312 -5.80252 
1620 2 -2.78184 3.25013 -5.07371 
1142 2 -1.82213 3.81755 -5.50079 
1877 2 -2.00617 3.47321 -4.57749 
1869 2 -1.06136 4.22838 -5.24671 
1824 2 -1.11321 3.92877 -4.47641 
383 1 -0.028895 3.81054 -5.90689 
1336 2 -0.048844 4.62954 -5.28975 
710 1 0.923562 3.61464 -5.10231 
415 1 0.780237 3.77349 -5.87605 
950 1 1.68209 3.97197 -5.52545 
510 1 1.78176 3.78693 -4.71148 
1130 2 2.96379 3.58756 -5.82825 
716 1 2.48783 4.36 -5.30303 
1274 2 3.98528 3.73976 -5.43814 
1769 2 4.7854 4.10905 -5.20719 
178 1 5.46767 3.47368 -5.82818 
1618 2 5.63145 4.57796 -5.32551 
1342 2 5.35503 4.6515 5.83653 
1933 2 -5.72594 5.06449 5.5227 
412 1 -5.05648 5.84138 -5.08435 
1670 2 -5.67756 4.46628 -4.73228 
1779 2 -5.47984 4.86171 -5.6284 
1640 2 -4.78045 4.67486 -4.76882 
1349 2 -4.36857 5.15955 -5.5454 
1757 2 -3.02028 5.84175 -5.90368 
428 1 -2.1864 4.81119 -5.48736 
1353 2 -3.6589 5.4829 -5.17655 
1413 2 -2.68302 5.64209 -5.08902 
729 1 -1.24984 5.24457 -4.97101 
17 1 -0.30897 5.37638 -4.74506 
528 1 0.185181 5.87063 -5.6365 
1039 2 0.768634 4.86892 -5.50324 
495 1 0.366937 5.75849 -4.85289 
135 1 -0.649808 5.58964 -5.65625 
959 1 0.894602 5.61681 -4.30875 
1193 2 1.45825 5.35774 -5.62085 
1847 2 1.38796 4.9423 -4.94479 
1033 2 0.780663 5.30533 5.57358 
1437 2 2.32824 5.70196 -5.90939 
1823 2 2.27376 5.40594 -4.87446 
653 1 3.3568 4.62071 -5.34984 
486 1 4.23258 5.29456 -5.70397 
48 1 4.27775 4.92655 -4.9647 
501 1 3.46247 5.07672 5.78936 
407 1 5.94156 5.74035 -5.2564 
318 1 5.09302 5.40518 -5.15629 
1849 2 -5.68754 -5.08016 -4.66202 
1272 2 -5.48586 -5.38825 -3.84119 
1192 2 -4.58395 -5.15488 -3.66307 
473 1 -3.37476 -5.37124 -4.63631 
1477 2 -3.89349 -4.52908 -4.22023 
255 1 -2.80849 -5.63034 -3.50599 
1008 1 -2.53065 -5.04261 -4.18171 
508 1 -2.01815 -5.2531 -3.39644 
333 1 -1.78188 -4.82097 -4.36455 
805 1 -1.03184 -4.73132 -3.84239 
1429 2 -0.6869 -5.86008 -3.66653 
1818 2 0.120626 -5.80118 -3.56483 
1737 2 0.508752 -5.36088 -4.15641 
1790 2 1.58818 -4.87352 -4.13105 
673 1 1.65522 -5.82418 -4.55967 
1742 2 0.869188 -5.41392 -3.35488 
1013 1 2.54036 -5.48475 -4.52493 
180 1 2.77005 -5.7916 -3.68095 
57 1 3.36918 -5.0956 -4.15081 
955 1 3.55161 -5.53273 -3.47699 
496 1 4.25478 -4.89432 -3.77694 
1704 2 3.80839 5.78638 -4.66489 
1358 2 5.44468 -5.61516 -3.89636 
847 1 5.00269 -4.81558 -3.13686 
75 1 -5.06906 -4.00557 -4.14257 
817 1 5.79815 -4.07629 -4.37581 
339 1 5.70728 -4.5783 -3.60991 
878 1 -4.13557 -3.46335 -4.52382 
483 1 -4.30795 -3.76483 -3.64672 
218 1 -3.53261 -3.29207 -3.96032 
1807 2 -2.92436 -4.14656 -4.00878 
1106 2 -2.09621 -3.93899 -3.80307 
1711 2 -1.21464 -3.44332 -4.48818 
2009 2 -1.33177 -3.67365 -3.56179 
924 1 0.391388 -3.9691 -4.58968 
328 1 0.171925 -4.47925 -3.94629 
1280 2 -0.471658 -3.61744 -3.55078 
403 1 1.00392 -4.04344 -3.76215 
782 1 1.25045 -3.52883 -4.65066 
321 1 1.82496 -3.60261 -3.76355 
1836 2 2.3201 -4.49986 -4.04581 
2010 2 3.09287 -4.01576 -4.37267 
1521 2 3.22375 -4.27366 -3.59634 
999 1 3.35482 -3.17715 -3.09727 
1655 2 3.95802 -3.76797 -4.38884 
1765 2 4.02915 -3.84916 -3.49644 
2002 2 4.70948 -3.46332 -3.85509 
131 1 4.89262 -4.41688 -4.31327 
1871 2 -5.48861 -2.83448 -4.44031 
1911 2 -5.39571 -3.05561 -3.65046 
1465 2 -4.68214 -2.50792 -4.12555 
1271 2 -3.9142 -2.23909 -4.25874 
991 1 -3.13535 -2.94923 -4.59218 
353 1 -2.43008 -2.66281 -4.24431 
599 1 -2.54026 -3.13675 -3.57577 
1086 2 -3.2909 -2.22859 -3.46959 
597 1 -0.635707 -2.1638 -4.13129 
664 1 -1.55564 -2.56169 -4.03411 
1909 2 0.738053 -2.63383 -4.45424 
1370 2 -0.39655 -3.17228 -4.31758 
1581 2 0.362181 -3.1429 -3.81962 
1006 1 0.118323 -2.08663 -3.61759 
547 1 2.05258 -3.30365 -4.52464 
1083 2 1.54867 -2.52165 -4.03906 
1982 2 1.16454 -2.89977 -3.27214 
694 1 2.75522 -2.80564 -5.05505 
1259 2 2.38492 -2.20614 -3.79663 
1676 2 3.2261 -1.80153 -3.83084 
471 1 2.95108 -3.00368 -4.07347 
904 1 4.51301 -2.33424 -4.25402 
277 1 3.58856 -2.54708 -4.49948 
914 1 3.76743 -2.86229 -3.64926 
602 1 4.47997 -2.51706 -3.39613 
1937 2 5.60592 -2.93205 -4.64451 
1201 2 5.56243 -3.27603 -3.94832 
25 1 5.23643 -2.08039 -4.15958 
609 1 5.31768 -2.40173 -3.36864 
717 1 -4.5027 -1.14085 -4.62044 
740 1 -5.77008 -1.9744 -3.78822 
205 1 -4.93028 -1.55864 -3.87978 
1436 2 -5.28369 -0.567719 -3.49656 
592 1 -3.7546 -0.953777 -4.0292 
734 1 -4.15869 -1.53001 -3.39867 
58 1 -2.70579 -0.639811 -3.90389 
1097 2 -2.58611 -1.84575 -3.859 
1801 2 -1.67899 -1.57884 -3.67442 
1781 2 -0.885613 -1.33808 -3.34488 
1069 2 -1.4199 -1.14599 -4.38935 
2046 2 -0.178382 -1.46262 -2.70248 
421 1 -0.271852 -1.83096 -4.97191 
1644 2 -0.53361 -1.00051 -4.11283 
674 1 0.27161 -1.61476 -4.32523 
1819 2 0.232219 -0.881178 -3.37954 
581 1 1.25688 -1.26807 -4.36397 
367 1 0.976836 -1.65995 -3.71822 
1190 2 2.74534 -1.74055 -4.50937 
106 1 2.14394 -1.07692 -4.06856 
199 1 2.97642 -0.731381 -3.74796 
1167 2 3.80646 -1.46852 -4.27036 
2036 2 4.43591 -1.40903 -3.57268 
2035 2 5.864 -1.04941 -3.6328 
1163 2 5.07975 -1.04147 -4.08031 
1111 2 -5.84121 -0.529889 -4.4598 
1212 2 -4.97583 -0.312397 -4.22047 
697 1 -5.67413 0.423778 -3.74257 
1830 2 -4.1867 -0.142094 -3.8137 
1256 2 -4.48576 0.121732 -4.96894 
2028 2 -3.57609 0.251491 -4.48833 
1184 2 -3.39906 0.0838215 -3.52664 
630 1 -1.78503 -0.314486 -4.06923 
701 1 -2.10142 -0.125419 -4.88236 
1736 2 -2.41896 0.42155 -3.61428 
704 1 -1.09587 0.150834 -4.23142 
799 1 -0.282965 0.513663 -4.10753 
1296 2 0.0962847 -0.430034 -4.33375 
499 1 0.472774 0.794822 -4.00714 
517 1 -0.202765 -0.054837 -3.18688 
464 1 0.566205 0.267231 -3.28455 
1916 2 1.89991 -0.133375 -3.81987 
1223 2 0.915486 -0.400231 -4.06678 
846 1 3.14536 -0.352233 -4.74379 
1412 2 2.69586 0.379712 -4.18046 
1517 2 2.65833 0.0890074 -3.32507 
116 1 3.86921 -0.221914 -4.49052 
715 1 3.83266 -0.523576 -3.64123 
872 1 5.55261 0.363308 -4.2194 
109 1 5.51401 -0.0521679 -3.26391 
469 1 4.64883 -0.180788 -3.9084 
338 1 -5.44862 0.719194 -4.47078 
354 1 -4.58658 1.02908 -4.40285 
1986 2 -5.67554 1.77162 -3.94176 
164 1 -3.78744 1.24562 -4.26916 
1643 2 -2.87208 0.599717 -4.44723 
489 1 -3.07913 1.48627 -3.80211 
843 1 -2.30588 1.76476 -3.59934 
1364 2 -1.03096 1.46878 -4.84792 
1550 2 -2.02063 0.886112 -4.22512 
1149 2 -1.05214 1.21907 -3.84394 
1187 2 -0.331254 1.65239 -4.27014 
1104 2 -0.295971 1.35478 -3.52485 
1310 2 0.486288 1.72272 -3.69405 
492 1 1.27021 1.0696 -4.42964 
594 1 2.08216 1.06289 -3.83461 
50 1 1.27532 0.730401 -3.57355 
894 1 3.16636 1.98155 -4.64071 
1011 1 2.3545 1.6033 -4.57983 
731 1 2.92167 1.50103 -3.70312 
1021 1 2.30699 1.02876 -3.06016 
2008 2 4.45174 1.24328 -4.39502 
1673 2 3.49705 0.725076 -4.03351 
1497 2 5.59824 1.60793 -4.37535 
1068 2 5.11831 1.25506 -3.77343 
1654 2 -5.38363 1.98409 -4.60869 
1132 2 -4.66291 1.94699 -3.87761 
772 1 -4.65689 3.35652 -4.09623 
26 1 -5.53865 2.77013 -3.62022 
676 1 -5.52172 3.03333 -4.36477 
1485 2 -4.40605 2.41929 -4.61415 
1728 2 -3.56579 2.76258 -4.63308 
1938 2 -3.78235 2.34439 -3.77275 
1794 2 -3.06973 2.55999 -3.33454 
1625 2 -2.72554 3.05986 -4.11686 
1175 2 -1.86651 3.28699 -3.80513 
1607 2 -2.22922 2.78186 -3.22172 
301 1 -0.793476 2.51812 -3.82834 
561 1 -1.53703 2.22866 -4.06439 
1683 2 0.584667 2.08583 -4.5469 
397 1 -0.0876591 2.95502 -4.22889 
1838 2 1.34588 2.03924 -3.97911 
1506 2 1.27571 2.43288 -4.89211 
1158 2 2.00108 2.15563 -3.67763 
310 1 0.709558 3.27225 -4.27588 
2020 2 1.79903 2.67003 -4.36453 
1214 2 2.64593 2.71305 -3.93205 
1461 2 2.80364 2.31867 -3.21128 
1999 2 3.59445 3.14009 -4.01746 
702 1 3.83018 2.07868 -4.06925 
726 1 4.69291 2.22931 -3.98927 
811 1 5.49411 2.62406 -3.99034 
1333 2 -5.74342 3.82214 -3.83703 
1275 2 -4.96604 4.00406 -3.20777 
1575 2 -5.01271 4.44849 -3.95562 
797 1 -3.84942 3.73184 -4.19743 
1957 2 -4.17947 4.66568 -3.85909 
446 1 -3.22865 3.86995 -3.82891 
82 1 -2.41827 4.51286 -4.72798 
250 1 -3.07541 4.20911 -4.62207 
340 1 -2.49588 4.26481 -3.92173 
1268 2 -1.0075 3.61109 -3.66974 
628 1 -0.480564 4.85237 -3.44764 
86 1 -1.30998 4.65408 -3.41398 
1354 2 -0.197281 4.21033 -4.59523 
1926 2 -0.131053 3.95231 -3.57141 
1304 2 0.610159 4.43328 -4.5689 
1161 2 0.61156 4.31916 -3.7079 
885 1 1.5908 3.50859 -3.9556 
1668 2 1.39149 4.65459 -4.09166 
709 1 2.60718 3.97333 -4.49507 
884 1 2.36618 3.6384 -3.6459 
256 1 3.44357 4.4428 -4.65837 
2039 2 3.82025 3.3768 -4.81155 
835 1 3.24543 4.06084 -3.82311 
1439 2 4.55006 3.63349 -4.47885 
662 1 4.17278 4.57898 -4.12088 
1562 2 4.39004 3.21326 -3.6365 
1971 2 5.38995 4.02886 -4.34004 
1636 2 5.11102 3.54534 -3.58495 
435 1 -5.27161 5.55434 -4.43363 
918 1 -5.27338 5.33562 -3.53718 
346 1 -3.63899 -5.82453 -3.77135 
825 1 -4.40449 5.86335 -4.12005 
1038 2 -4.01862 4.91474 -4.64261 
1236 2 -3.14447 5.28271 -4.09959 
1571 2 -1.62796 5.63319 -3.59591 
568 1 -1.73057 4.69631 -4.14191 
1526 2 -2.31194 5.525 -4.07359 
123 1 -0.806364 5.02462 -4.06963 
503 1 0.170777 5.19494 -3.84906 
64 1 1.87292 5.88161 -3.69597 
575 1 1.17478 5.41134 -3.45176 
1667 2 2.31019 4.94467 -4.1056 
1875 2 3.04624 5.53332 -4.57027 
1955 2 3.12486 5.08678 -3.86821 
2040 2 1.94537 4.45335 -3.25605 
1691 2 3.92728 5.48454 -3.68994 
699 1 5.01734 4.97289 -4.06823 
1425 2 4.57993 -5.88047 -4.0214 
579 1 5.8774 5.34114 -4.32549 
443 1 4.96282 4.52195 -3.21967 
775 1 5.79324 4.86966 -3.49471 
1418 2 -5.80846 -5.73908 -2.97765 
1197 2 -4.94654 -5.524 -2.78368 
542 1 -5.37133 -4.61139 -2.34499 
1079 2 -3.79861 -4.78559 -3.43263 
1454 2 -4.13523 -5.32048 -2.64191 
1047 2 -3.32811 -4.91962 -2.65191 
295 1 -2.76544 -5.88501 -2.67597 
260 1 -1.82758 -5.52836 -2.50824 
1783 2 -2.94543 -4.60325 -3.22209 
1613 2 -2.58051 -4.89996 -2.23159 
453 1 -1.15313 -5.03884 -3.01479 
934 1 -1.14753 -5.41788 -1.98666 
413 1 -0.209943 -4.80607 -3.17367 
1747 2 0.710744 -5.83415 -2.62624 
326 1 0.667132 -4.93126 -2.20636 
5 1 -0.451979 -5.15714 -2.41314 
1678 2 1.64802 -5.13972 -3.23521 
1319 2 1.60828 -5.61666 -2.36107 
1198 2 2.44064 -4.85145 -3.20381 
1082 2 2.41644 -5.21398 -2.33644 
1844 2 3.20969 -4.69053 -2.81913 
422 1 3.36339 -5.85012 -2.60495 
284 1 4.06584 -5.36951 -2.96813 
461 1 4.07844 -5.80976 -2.04807 
130 1 5.72384 -4.9003 -2.54193 
798 1 4.8162 -5.46074 -2.59355 
246 1 -5.22245 -4.31529 -3.27848 
1657 2 -5.54012 -3.44477 -2.8761 
1767 2 -5.62455 -3.77938 -1.89413 
411 1 -4.49262 -4.1195 -2.92597 
153 1 -4.56894 -4.51641 -1.87149 
524 1 -3.50501 -3.72042 -3.01159 
21 1 -2.69205 -3.43949 -2.64153 
1843 2 -2.24248 -4.30169 -2.85521 
1531 2 -1.43105 -3.97501 -2.80877 
1327 2 -1.70464 -4.43163 -2.03794 
1896 2 -0.453597 -3.85534 -2.59694 
107 1 0.671148 -4.4081 -2.9327 
1878 2 0.243253 -3.82853 -2.12323 
1645 2 0.220763 -3.41697 -3.00133 
938 1 1.63596 -4.11878 -2.95696 
1001 1 2.60786 -3.41451 -3.40704 
245 1 1.39798 -4.5524 -2.10105 
754 1 2.4666 -3.89448 -2.58693 
140 1 3.32472 -3.46773 -2.35283 
1928 2 4.0295 -4.22931 -2.585 
137 1 4.14907 -3.53634 -1.75079 
1240 2 5.60829 -3.54047 -3.13742 
1194 2 4.78139 -3.85277 -3.00386 
1409 2 4.50803 -4.38876 -2.01993 
1530 2 5.47503 -4.04062 -2.20989 
66 1 -5.76396 -2.35231 -3.00497 
833 1 -5.08932 -2.37535 -2.17304 
1664 2 -4.77463 -3.30745 -2.59362 
2007 2 -4.64339 -2.94025 -3.28452 
1817 2 -3.84589 -2.82108 -2.26406 
1745 2 -3.8775 -2.73044 -3.07038 
683 1 -4.41422 -2.21343 -1.70559 
1808 2 -3.08031 -2.32545 -2.65222 
1391 2 -2.41304 -2.04017 -2.96277 
1505 2 -2.3463 -2.3925 -2.08997 
313 1 -1.8895 -2.82564 -3.20972 
71 1 -1.82538 -3.24132 -2.37053 
388 1 -1.0319 -2.6529 -3.18788 
657 1 -0.168081 -2.49654 -2.8697 
573 1 0.692933 -2.06286 -3.04879 
526 1 0.434532 -2.38718 -2.22098 
1401 2 1.94076 -2.71599 -3.09501 
1848 2 0.935333 -3.22084 -2.54332 
1894 2 1.79718 -3.05307 -2.1447 
1263 2 2.96413 -2.22888 -3.10971 
1457 2 2.58568 -2.63284 -2.26301 
296 1 4.25529 -3.08478 -2.57651 
1533 2 3.57677 -2.22441 -2.62214 
213 1 5.71474 -2.74847 -2.28873 
784 1 4.90576 -2.72611 -2.64316 
1876 2 -5.31627 -1.08064 -2.75887 
161 1 -4.79878 -1.95763 -2.97858 
1962 2 -4.49436 -0.958869 -2.16604 
722 1 -4.20814 -1.85405 -2.41426 
275 1 -3.5016 -1.34231 -2.64939 
917 1 -3.27774 -1.05823 -3.38041 
285 1 -2.48021 -0.848305 -3.119 
117 1 -2.57559 -1.2527 -2.30447 
1870 2 -1.51608 -1.95599 -2.82993 
449 1 -1.70872 -0.81938 -2.30071 
1057 2 -0.863233 -1.79391 -2.33065 
1113 2 0.573314 -1.02101 -2.61967 
1449 2 -0.56833 -1.94085 -1.63291 
768 1 1.86467 -1.47456 -3.29237 
287 1 1.39735 -1.85808 -2.5847 
1796 2 1.31687 -0.903873 -2.12079 
427 1 2.75666 -1.16968 -3.01992 
215 1 2.19619 -1.63648 -2.16922 
839 1 3.1244 -1.39624 -2.07148 
1973 2 3.81228 -1.73 -3.19145 
334 1 3.58887 -0.855315 -2.77084 
377 1 4.23238 -0.961674 -2.13185 
1350 2 4.40487 -1.922 -2.32895 
1346 2 5.82912 -1.56271 -2.52337 
1110 2 5.09055 -1.4077 -2.96281 
1279 2 5.25848 -1.82067 -1.98242 
689 1 -4.98595 0.395241 -2.82286 
190 1 -5.75241 -0.11062 -2.48979 
1498 2 -4.49269 -0.520307 -3.07876 
1589 2 -3.60168 -0.189625 -2.71268 
1514 2 -3.72007 -0.770667 -1.73548 
32 1 -4.22115 0.804431 -2.65592 
1834 2 -2.58822 0.142432 -2.84351 
2022 2 -1.50424 0.944281 -3.27803 
419 1 -1.61585 -0.600609 -3.17796 
59 1 -0.935249 -0.0663565 -3.47155 
1761 2 -1.82812 0.365875 -2.94127 
750 1 -0.968609 -0.581519 -2.68488 
2043 2 -1.2102 0.464703 -2.1677 
898 1 -0.0284428 -0.215834 -2.23157 
1143 2 1.22863 -0.643549 -3.1131 
963 1 0.756533 -0.0199401 -2.41642 
783 1 1.57185 0.456632 -2.77933 
1360 2 2.07799 -0.400827 -2.74439 
1777 2 2.87966 -0.160216 -2.48819 
1568 2 1.96414 -0.565077 -1.8633 
2027 2 3.46867 0.267464 -2.99193 
1952 2 4.40465 0.521248 -2.47082 
1696 2 3.72007 -0.0234804 -2.09093 
692 1 4.64042 -0.484592 -2.9176 
691 1 5.31181 -0.536392 -2.3745 
752 1 -4.78082 0.705509 -3.69087 
1512 2 -5.13076 1.62732 -3.2266 
1720 2 -5.31003 1.23242 -2.49267 
1858 2 5.83735 1.36745 -3.14603 
1724 2 5.81444 0.889247 -2.22524 
613 1 -3.85537 0.952594 -3.3246 
1520 2 -4.32545 1.94772 -3.01296 
982 1 -3.05691 1.1133 -3.06592 
686 1 -3.29783 0.825243 -2.30091 
585 1 -2.19113 1.43779 -2.72729 
259 1 -2.47858 0.937834 -2.06435 
1893 2 -0.693094 0.88567 -2.73681 
134 1 -1.22609 1.81737 -2.39736 
919 1 -0.432626 1.74974 -1.99921 
1067 2 -0.245415 0.725149 -1.95407 
1340 2 0.273472 1.05683 -2.73669 
1860 2 0.869456 1.71447 -2.9741 
1642 2 1.71792 1.79509 -3.01192 
1297 2 0.627024 1.12136 -2.00555 
90 1 2.35127 0.644777 -2.28031 
874 1 3.02846 1.27334 -2.81439 
171 1 3.91017 1.91397 -3.23792 
1953 2 4.28666 0.808322 -3.56258 
381 1 3.81952 1.52066 -2.47136 
1017 1 4.6953 1.68634 -2.28947 
1861 2 5.15061 0.812807 -2.8609 
104 1 5.63885 2.00283 -2.18116 
369 1 -4.69046 2.9751 -3.19269 
631 1 -5.56441 2.4217 -2.78356 
194 1 -4.68379 2.72243 -2.213 
2038 2 -3.50506 1.96012 -2.84259 
966 1 -3.89435 3.06199 -2.60369 
460 1 -4.00386 3.39334 -3.38384 
1415 2 -2.80148 2.17951 -2.3154 
1839 2 -2.69997 1.93142 -1.5156 
323 1 -3.05923 3.15439 -2.3399 
115 1 -0.780762 2.14107 -2.86618 
208 1 -1.53932 1.93586 -3.31375 
1476 2 -1.35641 3.13631 -3.12946 
1959 2 -2.03262 2.57239 -2.40506 
1756 2 -1.33084 2.9545 -2.40476 
896 1 -0.118991 2.61369 -3.29817 
1616 2 -0.516298 3.09941 -2.02772 
76 1 -0.0247652 2.24444 -2.50653 
379 1 0.740175 2.84842 -3.53405 
143 1 0.835578 2.60473 -2.59363 
124 1 1.56102 2.95079 -3.10367 
828 1 1.84668 2.67911 -2.22352 
1967 2 2.56934 2.01893 -2.49797 
478 1 2.53514 3.11209 -2.04748 
1786 2 3.57551 2.51052 -2.35249 
1522 2 3.54879 2.81652 -3.23111 
1330 2 4.34555 3.07266 -2.76783 
232 1 4.6244 2.13058 -3.05552 
7 1 5.4291 2.3328 -3.05045 
1026 2 5.34103 2.92144 -1.82244 
1276 2 -5.84464 3.34586 -2.23701 
1825 2 -5.82958 3.48082 -3.01973 
1325 2 -4.06065 3.8792 -1.81603 
1669 2 -4.21544 4.24765 -2.75788 
1419 2 -3.34497 4.51376 -2.57152 
612 1 -2.12423 4.08694 -3.25242 
276 1 -3.12822 3.61668 -3.04529 
520 1 -2.3532 3.63367 -2.5832 
733 1 -1.46794 4.00893 -2.72911 
1689 2 -0.395776 3.50885 -2.86995 
1183 2 0.434124 3.71279 -2.89053 
111 1 -0.743745 4.2697 -2.34724 
836 1 0.193018 4.5308 -2.02451 
1679 2 0.327188 3.31309 -1.95347 
1372 2 1.17896 4.11649 -3.18076 
1997 2 1.35752 3.88492 -2.41512 
1071 2 2.1775 4.20635 -2.53346 
742 1 2.33631 3.19775 -2.89208 
1981 2 3.07019 4.55558 -2.36334 
394 1 4.1805 4.28962 -3.34038 
183 1 3.22129 3.75238 -2.90458 
580 1 4.08073 3.97952 -2.57537 
1994 2 5.19278 3.2867 -2.7151 
448 1 4.87131 4.12136 -2.32737 
432 1 5.65088 4.47289 -2.64586 
552 1 -5.50381 4.7712 -2.87794 
1822 2 -5.0057 5.95184 -2.01774 
262 1 -4.3176 5.55308 -3.27511 
342 1 -4.7318 5.16781 -2.66415 
993 1 -3.64493 5.78285 -2.94124 
1329 2 -3.40328 4.87146 -3.38092 
1287 2 -2.54432 4.72845 -2.32798 
1334 2 -2.56419 5.16106 -3.26877 
229 1 -3.11902 5.49725 -1.983 
1335 2 -1.84982 5.26127 -2.80171 
1592 2 -0.913439 5.70108 -2.88318 
1348 2 -1.79039 4.73603 -1.99191 
1338 2 -0.997043 5.25212 -2.12336 
720 1 -0.255895 4.72878 -2.62359 
1543 2 -0.0711888 5.91214 -2.67023 
564 1 0.463183 5.02742 -3.01583 
442 1 1.66271 5.4149 -2.79046 
652 1 0.974976 4.92508 -2.34453 
648 1 2.53085 5.81059 -2.92773 
1093 2 2.66424 4.82864 -3.20699 
1489 2 4.50692 5.43792 -2.92597 
425 1 3.32708 5.657 -1.88854 
1244 2 3.52643 5.04222 -3.05086 
1499 2 3.81788 4.90843 -2.2596 
1394 2 5.39515 5.8826 -3.27567 
1593 2 4.74641 5.06947 -2.13316 
1312 2 5.51655 5.51768 -2.53913 
452 1 -5.23853 -4.87922 -1.43165 
142 1 5.7087 -5.26534 -1.83685 
988 1 5.83234 -5.55931 -0.837569 
1292 2 -4.21379 -5.48333 -1.95075 
864 1 -4.2138 -4.79697 -1.05563 
182 1 -3.48685 -4.35586 -1.52277 
1404 2 -3.3874 -5.39553 -1.85711 
1582 2 -2.62269 -5.12932 -1.33356 
954 1 -2.39286 -5.9256 -1.81806 
1782 2 -3.27517 -5.6177 -0.852015 
1209 2 -1.76577 -4.80135 -1.32944 
337 1 -1.72826 5.86085 -1.49987 
1932 2 -0.913578 -4.52025 -0.982813 
661 1 0.074493 -5.21709 -1.51878 
147 1 -0.648869 -5.49834 -1.29762 
1081 2 1.27178 5.92399 -1.48442 
317 1 0.917285 -5.34976 -0.578149 
569 1 1.00304 -4.94792 -1.39351 
1563 2 2.86894 -5.16641 -1.62348 
1887 2 2.12268 -5.58772 -1.49662 
1199 2 2.55495 -5.82288 -0.58971 
1749 2 3.57242 -4.86344 -2.09079 
802 1 4.03055 5.55073 -1.10399 
1309 2 3.22641 -5.45733 -0.922568 
586 1 4.99367 -5.74936 -1.87556 
65 1 4.83143 -5.83921 -1.04632 
1217 2 -5.88362 -4.17387 -1.1308 
1131 2 -4.83252 -3.94985 -0.765642 
1400 2 -4.70039 -3.43343 -1.60099 
366 1 -3.8349 -4.10328 -2.271 
1545 2 -3.9298 -3.5935 -0.754903 
1924 2 -3.80615 -3.27724 -1.59071 
46 1 -2.75843 -3.86508 -1.99021 
248 1 -2.55769 -4.14577 -0.942591 
890 1 -1.97121 -3.6013 -1.4364 
1442 2 -3.02523 -3.20742 -0.983521 
324 1 -1.38897 -3.67071 -0.809745 
51 1 -1.00085 -3.25966 -1.50883 
1802 2 -0.858966 -4.30386 -1.88249 
1246 2 -0.145396 -4.30317 -1.42961 
1580 2 1.22346 -3.64023 -1.71346 
1738 2 1.85223 -3.59371 -1.06099 
1051 2 0.882054 -4.07675 -0.923959 
1019 1 1.69233 -4.73516 -1.02116 
249 1 2.24581 -4.21501 -1.70642 
100 1 2.59313 -4.54871 -0.860093 
550 1 3.76446 -4.03127 -0.954488 
20 1 3.08491 -3.97428 -1.5861 
1859 2 4.05803 -4.97168 -1.4057 
639 1 3.36338 -4.32013 -0.357008 
2017 2 5.10309 -4.4966 -1.44017 
562 1 4.6455 -3.55701 -1.06882 
968 1 -4.86835 -2.6612 -1.01376 
636 1 -5.62388 -2.84372 -1.59904 
948 1 -2.46795 -1.8881 -0.689107 
219 1 -3.53403 -2.11075 -1.03503 
1052 2 -3.01417 -2.8951 -1.80416 
1216 2 -2.21367 -2.64164 -1.22386 
753 1 -0.98852 -2.9882 -2.29595 
1459 2 -1.52545 -2.15439 -1.9119 
1121 2 -1.34198 -2.50225 -1.00258 
677 1 -0.175417 -3.01758 -1.84147 
1416 2 -0.538366 -2.34195 -0.908165 
844 1 -0.129556 -3.29374 -1.07606 
830 1 0.629678 -2.89691 -1.3297 
211 1 1.19665 -2.21646 -1.83306 
705 1 1.41815 -2.6445 -0.875911 
1066 2 2.41365 -3.12041 -1.50341 
1698 2 2.91848 -3.25227 -0.895595 
566 1 2.04766 -2.12028 -1.31644 
1010 1 2.44029 -2.28565 -0.61079 
1991 2 3.36437 -2.57794 -1.85409 
1326 2 4.14813 -2.46884 -1.60894 
1123 2 3.64179 -2.77287 -0.959005 
291 1 5.04616 -3.13661 -1.94959 
1754 2 4.90292 -2.22341 -1.22543 
928 1 5.65328 -3.16159 -1.01881 
1947 2 4.46436 -2.68912 -0.623231 
1972 2 -5.42286 -1.27872 -1.83725 
1641 2 -5.23007 -1.63347 -0.757064 
1760 2 -4.00332 -1.2518 -0.631277 
1946 2 -4.6393 -1.23146 -1.31403 
447 1 -3.48825 -1.74404 -1.87976 
99 1 -2.7195 -1.66766 -1.43721 
548 1 -1.85904 -1.3472 -1.61185 
757 1 -0.798054 -1.20198 -0.917219 
160 1 -1.01012 -0.688221 -1.81236 
1235 2 0.241709 -1.47809 -1.77122 
1827 2 0.332759 -1.81822 -1.01028 
588 1 -0.0155768 -0.994104 -0.376295 
1659 2 1.01354 -1.21096 -1.3235 
1177 2 1.12685 -1.74116 -0.557385 
1493 2 1.8991 -1.10685 -1.12412 
626 1 2.84616 -1.78473 -1.31222 
1897 2 2.7407 -0.738151 -0.808825 
125 1 3.81805 -1.44839 -1.42059 
867 1 3.46439 -1.65119 -0.72972 
518 1 5.05736 -0.944813 -1.54311 
222 1 4.49351 -1.26955 -0.918349 
1978 2 5.91967 -1.85696 -1.41819 
958 1 5.26235 -1.06468 -0.708167 
241 1 -5.12796 -0.130102 -1.92247 
654 1 -5.73681 -0.79008 -0.54751 
297 1 -4.89479 -0.358198 -1.05155 
278 1 -4.36868 0.182889 -1.87354 
189 1 -3.45453 0.58656 -1.46556 
1507 2 -2.15505 0.0158821 -2.15698 
1206 2 -3.16862 -0.775068 -0.943299 
1098 2 -2.97461 -0.305716 -1.99606 
921 1 -3.10569 0.168865 -0.55867 
1432 2 -2.22364 -0.436453 -1.20019 
1128 2 -1.43976 0.0387496 -1.38722 
615 1 -0.20724 -0.729829 -1.31458 
870 1 0.747285 -0.618091 -0.599434 
1735 2 -0.627192 0.226334 -1.2849 
1213 2 0.290661 0.255739 -0.467039 
601 1 0.682699 -0.205874 -1.48182 
776 1 1.44503 0.309277 -1.99804 
886 1 1.48151 -0.0689465 -1.02433 
1832 2 2.81016 -0.500091 -1.54508 
243 1 2.18828 0.274407 -1.47258 
858 1 3.01347 0.661249 -1.06572 
1502 2 4.46167 -0.100475 -1.55882 
1314 2 3.60877 -0.29305 -1.27647 
1320 2 4.39446 -0.234538 -0.669356 
876 1 5.90473 -0.59675 -1.40172 
1282 2 5.16451 0.369835 -1.85998 
2030 2 5.09974 0.251391 -0.918952 
1803 2 -5.83471 0.342284 -1.03137 
110 1 -5.11106 1.88194 -1.14142 
1508 2 -5.25315 0.930278 -1.50088 
1229 2 -4.54095 1.67184 -2.14942 
1672 2 -4.32648 1.19283 -1.29765 
1305 2 -3.5156 1.42434 -0.945224 
1776 2 -3.66005 1.70434 -1.80454 
1170 2 -2.68007 1.53928 -0.609941 
94 1 -2.51091 0.582039 -1.16714 
614 1 -1.68716 1.30432 -1.96203 
307 1 -1.75807 0.841534 -0.901358 
192 1 -1.01124 1.31767 -1.31963 
1622 2 -2.04014 1.96228 -0.804512 
240 1 0.466424 2.20534 -1.67928 
1726 2 0.445614 0.746134 -1.25713 
910 1 -0.176102 1.57383 -1.23828 
937 1 0.632782 1.89507 -0.771702 
1811 2 1.29769 1.0267 -1.20598 
1681 2 1.50093 1.43653 -2.15657 
1712 2 2.00948 1.24591 -0.954489 
1874 2 2.163 1.70106 -1.64817 
1205 2 2.81029 1.48382 -0.644374 
16 1 3.11696 0.912476 -1.89558 
231 1 3.9525 1.15143 -1.75038 
1977 2 3.80017 2.06792 -1.40056 
944 1 5.70187 1.53059 -1.46064 
557 1 4.84666 1.35078 -1.39238 
351 1 5.64673 1.25479 -0.599674 
761 1 -5.4404 2.23728 -1.98964 
1278 2 -5.10558 3.2944 -1.43638 
926 1 -4.44823 2.49381 -1.35235 
1960 2 -4.92348 3.16837 -0.692757 
298 1 -3.75362 2.70863 -1.92771 
516 1 -3.69622 2.49554 -0.997662 
696 1 -3.07452 3.02081 -1.47718 
418 1 -2.4039 2.93967 -1.04929 
1107 2 -1.15367 2.72083 -1.51715 
2021 2 -1.88125 2.26564 -1.5921 
1428 2 -0.37779 2.69736 -1.10364 
1405 2 0.398789 2.99027 -1.03702 
747 1 1.30226 2.4581 -1.71344 
44 1 1.45719 2.18853 -0.878011 
114 1 2.44753 2.72339 -1.29611 
34 1 3.42517 3.40781 -2.0439 
786 1 3.20551 2.9132 -1.16685 
1866 2 4.43324 2.60046 -1.90648 
1718 2 3.0234 1.85852 -1.60965 
582 1 3.98216 3.1775 -1.0296 
1328 2 5.48074 2.44217 -0.859416 
1065 2 4.71655 2.36456 -1.2116 
1527 2 -5.82908 2.84027 -1.23421 
1399 2 -4.95729 3.6568 -2.23526 
370 1 -5.44086 4.60331 -1.92523 
355 1 -5.37782 4.30336 -1.05036 
679 1 -4.57467 4.34905 -0.703528 
1056 2 -4.05176 3.58234 -1.15445 
1155 2 -3.4053 4.1814 -1.68488 
1105 2 -3.29673 3.88051 -0.849866 
1601 2 -2.46318 4.4061 -1.38602 
165 1 -1.48015 3.71388 -1.81087 
985 1 -0.559693 3.63668 -0.804808 
1339 2 -1.40714 4.79701 -1.29221 
879 1 -2.28375 3.40322 -1.77847 
266 1 -0.590525 4.1052 -1.52941 
487 1 0.104899 4.14667 -1.16979 
667 1 0.957385 4.5761 -1.65705 
1968 2 1.04142 3.57776 -1.5627 
1854 2 1.90008 3.76919 -1.61371 
1126 2 2.67519 4.19077 -1.70872 
1974 2 2.07469 3.49131 -0.794485 