ITEM: TIMESTEP
31300
ITEM: NUMBER OF ATOMS
2048
ITEM: BOX BOUNDS pp pp pp
-5.9356895584888454e+00 5.9356895584888454e+00
-5.9356895584888454e+00 5.9356895584888454e+00
-5.9356895584888454e+00 5.9356895584888454e+00
ITEM: ATOMS id type x y z 
14 1 -4.68621 -5.86688 -4.91779 
333 1 -4.81092 -5.52357 -5.60401 
1390 2 -5.22009 -4.44374 -5.26142 
1227 2 5.80815 -5.27868 -4.77759 
346 1 -3.88315 -5.66788 -4.34395 
508 1 -3.90775 -5.36363 -5.12067 
902 1 -2.45803 -4.68751 -5.32856 
1329 2 -1.98239 -5.86614 -4.87624 
5 1 -3.06815 -5.09679 -4.81919 
1551 2 -0.895565 -5.39469 -5.151 
1029 2 -1.65454 -5.48009 -5.47412 
1571 2 0.0337428 -4.99255 -5.4182 
1338 2 0.336492 -5.29337 -4.58624 
428 1 1.25454 -5.52775 -5.69486 
1013 1 1.12101 5.88395 -4.90246 
442 1 2.12535 -5.2204 -5.62013 
1542 2 1.14173 -4.70312 -4.76949 
673 1 1.90954 -5.61667 -4.88569 
496 1 2.78636 -5.01713 -5.1999 
1901 2 4.08775 -5.76866 -5.05995 
707 1 3.55319 -4.88639 -4.90884 
1239 2 4.73463 -5.2663 -5.54957 
1090 2 4.33101 5.91689 -4.14313 
2003 2 5.68425 -4.95201 -5.48839 
1249 2 -4.37746 -4.47035 -5.22202 
809 1 -4.72095 -3.77151 -4.57968 
684 1 -5.50877 -3.52982 -5.56466 
373 1 -5.54182 -3.93902 -4.39948 
1559 2 -3.46226 -4.06005 -5.1048 
1467 2 -3.82029 -3.85145 -5.74558 
91 1 -3.25539 -4.74175 -5.79682 
1472 2 -2.8232 -3.56202 -5.54994 
1617 2 -2.28943 -3.68096 -4.8581 
1711 2 -1.48483 -3.60025 -4.284 
530 1 -1.37837 -4.19901 -5.58593 
855 1 -1.79022 -4.57954 -4.914 
1 1 -0.67871 -4.10682 -5.11824 
413 1 -0.162226 -3.67384 -5.73145 
782 1 0.745231 -3.33904 -5.6995 
819 1 0.387403 -3.7685 -4.9507 
1035 2 0.726265 -4.5398 -5.63709 
1236 2 1.75307 -4.24822 -5.48511 
1260 2 2.63229 -3.67714 -5.53262 
1198 2 3.55784 -3.81189 -4.90925 
1081 2 2.51134 -4.10141 -4.85887 
1528 2 3.65418 -3.40354 -5.59574 
1887 2 4.31118 -3.52271 -4.5246 
180 1 4.4511 -4.50898 -4.75462 
481 1 4.99747 -4.21618 -5.4949 
280 1 5.66543 -3.73043 -5.19952 
242 1 5.42488 -4.3201 -4.66279 
1745 2 -5.03232 -2.25297 -5.56026 
1491 2 -5.02178 -2.66223 -4.61474 
283 1 -4.71205 -2.93646 5.76463 
353 1 -3.9773 -2.85784 -5.40018 
196 1 -3.87871 -3.30772 -4.57425 
622 1 -4.77259 -3.24987 -5.32614 
402 1 -2.88858 -2.82189 -4.43806 
218 1 -3.08008 -2.63078 -5.32016 
2009 2 -1.65532 -3.2706 -5.36002 
1515 2 -0.773449 -3.04789 -4.97322 
595 1 -1.9538 -2.53122 -4.55695 
967 1 -2.3558 -2.37618 -5.47883 
35 1 -1.08692 -2.12256 -4.51208 
1197 2 -1.11825 -2.82212 -5.9332 
1820 2 -0.0615048 -2.57164 -5.386 
1555 2 0.105353 -2.99663 -4.29284 
1250 2 0.632054 -2.15129 5.64885 
1533 2 0.608531 -2.47593 -4.8225 
122 1 1.62112 -2.94299 -5.66024 
1698 2 1.12215 -2.09176 -5.56881 
547 1 1.3658 -3.4993 -5.04416 
904 1 3.293 -2.67315 -5.044 
779 1 2.52265 -2.4902 5.72309 
939 1 2.36017 -2.83639 -5.23812 
706 1 3.39819 -2.26731 -5.78007 
475 1 4.13988 -2.33894 -4.89347 
277 1 4.19439 -2.09445 -5.70543 
1341 2 4.64558 -3.13095 -5.39771 
1705 2 -5.84901 -2.52632 -5.09311 
1929 2 5.32861 -2.61345 -5.62826 
1995 2 5.0714 -3.06941 -4.6051 
385 1 5.10256 -1.88467 -4.81679 
609 1 -4.38871 -0.795516 -5.61589 
562 1 -5.27502 -1.13985 -5.37298 
1475 2 -4.72873 -1.78886 5.61485 
1588 2 -4.21627 -1.80048 -5.63433 
1975 2 -3.73914 -1.70652 -5.03897 
701 1 -4.41835 -1.01275 -4.82199 
1271 2 -2.90901 -1.46206 -5.11396 
1713 2 -2.39369 -0.838852 -5.93408 
1243 2 -2.01138 -1.13652 -5.18128 
1414 2 -0.940525 -0.813873 -5.20706 
8 1 -1.43709 -1.95781 -5.39397 
1355 2 -1.52748 -0.450074 -5.94716 
367 1 -0.435679 -1.56899 -5.59205 
788 1 0.362255 -1.1504 -5.92787 
768 1 0.772967 -0.630949 5.47569 
674 1 0.593659 -1.3151 -5.06699 
404 1 1.6653 -0.886606 -4.82984 
1401 2 2.53579 -1.49519 -5.52326 
1676 2 3.51712 -1.17727 -5.54046 
1935 2 1.69808 -1.65121 5.78338 
1190 2 3.84979 -1.38652 -4.6723 
1257 2 4.4947 -0.899744 -5.02142 
33 1 4.89704 -1.64465 -5.76097 
403 1 5.87005 -1.43237 -4.97553 
1110 2 -4.72334 0.0216255 -4.6349 
2036 2 -5.03969 -0.0526339 -5.41012 
117 1 -3.89365 -0.934838 -4.14163 
1111 2 -4.10395 0.397988 -5.10839 
833 1 -3.48441 -0.558604 -4.93419 
505 1 -2.3664 -0.332622 -4.67553 
212 1 -2.85036 -0.143662 -5.46649 
769 1 -2.78874 0.219189 5.56126 
374 1 -1.92401 0.344058 -5.5197 
244 1 -0.954962 0.593695 -5.56939 
451 1 -0.675607 0.469617 -4.79884 
1809 2 -0.21249 -0.365254 -5.30754 
1631 2 0.318202 0.115495 -5.89379 
1570 2 0.326449 -0.339359 -4.58697 
1785 2 0.845126 0.0137186 -5.30358 
916 1 1.36792 -0.798563 -5.64394 
758 1 3.01572 0.00501819 -5.91799 
334 1 2.22736 -0.411807 -5.4466 
2041 2 1.70654 0.346194 -4.97303 
31 1 1.77763 -0.196735 5.56404 
105 1 3.50754 -0.0838179 -5.19408 
908 1 3.90369 0.345299 -5.78259 
1725 2 -5.94498 -0.428457 -4.69882 
469 1 -5.89764 1.41268 5.73507 
230 1 -4.91295 1.07022 -4.78636 
1343 2 -3.11423 0.727202 -4.78695 
109 1 -4.1955 1.73206 -5.81497 
1736 2 -3.52032 0.795057 -5.53113 
689 1 -4.0509 1.63258 -5.06772 
1346 2 -4.48137 0.435593 5.86466 
1498 2 -2.45883 1.25422 -5.23128 
752 1 -3.09385 1.88518 -4.8557 
1256 2 -2.01675 1.01643 -4.52542 
2001 2 -0.913064 1.39476 -4.22377 
1058 2 -1.33594 1.37941 -4.86875 
827 1 0.0539618 0.94183 -5.16664 
380 1 1.62056 1.48199 -4.84787 
401 1 0.794024 0.981102 -4.74124 
1180 2 1.49181 0.685088 -5.90031 
1502 2 2.64518 0.501789 -4.62798 
1314 2 2.38975 0.73017 -5.53417 
869 1 2.98852 2.17561 -5.01363 
1210 2 3.2054 1.13426 -5.11605 
1470 2 4.0201 1.33366 -5.13716 
1572 2 3.60421 0.830647 -4.39175 
1953 2 4.74606 1.76582 -5.65764 
195 1 4.63831 0.527299 -5.26212 
866 1 -5.82104 0.99391 -5.27316 
1204 2 5.38292 1.74442 -4.78051 
1877 2 -4.97919 2.69029 -5.73125 
1861 2 -4.69878 2.53895 -4.91319 
190 1 -3.41253 2.09984 -5.60895 
1800 2 -3.37347 3.13926 -5.13425 
1412 2 -4.11182 2.90212 -5.40398 
493 1 -2.51119 2.5626 -5.78763 
815 1 -2.2076 2.5414 -4.93385 
546 1 -1.69325 2.99735 5.89471 
950 1 -1.15339 2.93742 -5.06158 
727 1 -0.787466 3.35163 5.80107 
1999 2 -0.232755 1.86031 -4.67302 
1945 2 -0.896533 1.8743 -5.53588 
1506 2 0.295271 2.43179 -5.43928 
1364 2 1.10562 2.85325 -5.50832 
1979 2 0.88827 2.31563 -4.6347 
1628 2 2.33666 3.08128 -5.31251 
1085 2 1.76118 2.57324 -4.73337 
570 1 2.30767 1.67176 -5.18213 
188 1 4.68942 2.5088 -4.95264 
96 1 3.85399 2.51848 -5.20699 
762 1 4.26467 3.00152 -5.81365 
1403 2 -5.75432 2.16255 -5.20581 
7 1 5.48647 2.85769 -4.46946 
396 1 5.27569 3.14164 -5.35507 
926 1 -4.78965 3.94973 -5.78098 
1365 2 -5.17142 4.54344 -4.65767 
369 1 -4.87122 3.53605 -5.11105 
755 1 -5.81053 3.71169 -5.8971 
923 1 -3.03799 4.4955 -4.87627 
69 1 -3.9913 3.9723 -5.04978 
250 1 -3.87991 4.36387 -5.8762 
1482 2 -2.57855 3.63005 -5.31684 
1772 2 -1.92967 3.86813 -5.62986 
221 1 -2.13614 4.79647 -4.93193 
989 1 -2.9381 4.81076 -5.78482 
1476 2 -1.52232 3.83993 -4.75827 
1378 2 -0.606681 4.20537 -4.9226 
1934 2 -1.23751 4.35913 -5.62387 
1692 2 -0.0613212 4.76498 -5.45547 
1336 2 -0.503175 4.78971 5.67129 
852 1 -0.351765 3.17583 -5.29513 
1756 2 1.09091 5.15181 -5.72888 
76 1 0.161216 3.68291 -5.56587 
56 1 0.975724 3.70996 -5.17506 
501 1 1.43862 4.18155 -5.82193 
1342 2 2.97254 3.58785 -5.67885 
653 1 1.86812 4.03169 -5.10397 
1002 1 2.83165 4.46845 -5.15836 
1214 2 3.41909 3.486 -4.90356 
1274 2 4.02554 4.06935 -5.39332 
1146 2 3.6923 3.98044 5.78538 
1088 2 5.81989 4.51214 -5.27321 
1779 2 4.97754 4.03439 -4.79453 
342 1 -5.51536 -5.57122 5.76399 
1207 2 -5.15543 4.97498 -5.4922 
1527 2 -4.40799 4.85044 -4.58843 
1989 2 -3.55331 5.46234 -5.14258 
1311 2 -4.28434 5.18932 -5.59473 
1526 2 -2.61108 5.73209 -4.54128 
146 1 -2.29188 5.1705 -5.64058 
1301 2 -2.83112 -5.91234 -5.3387 
797 1 -1.34476 5.2196 -5.30182 
836 1 -0.636951 5.33371 -4.59396 
350 1 0.301513 5.87702 -5.61613 
340 1 -0.629278 5.68127 -5.45859 
1372 2 0.4696 4.99027 5.72126 
1607 2 1.35231 4.89071 -4.88391 
1033 2 1.48778 5.55258 5.64446 
1704 2 3.18679 5.93464 -5.53817 
777 1 2.23007 4.43162 -5.87638 
1955 2 2.05664 5.42471 -5.53345 
1093 2 2.70634 5.46052 -4.86256 
1847 2 3.40491 5.74312 -4.59828 
437 1 3.84422 4.95552 -4.8755 
473 1 3.40611 4.89547 -5.65054 
432 1 3.41792 4.31135 -4.4078 
255 1 4.56581 5.31986 -5.37211 
1203 2 -5.73347 -5.44297 -3.94418 
1931 2 -5.21224 -5.02567 -4.6048 
274 1 -3.22276 -5.4566 -4.00526 
805 1 -4.6362 5.74504 -4.03758 
1534 2 -4.65275 -5.12372 -4.01518 
2000 2 -3.94151 -4.8021 -3.63432 
467 1 -2.43296 -4.94388 -4.35769 
147 1 -2.46422 -5.2721 -3.62964 
497 1 -1.65511 -4.92408 -4.01049 
1353 2 -1.35941 5.85959 -4.14634 
1818 2 -0.595737 5.81297 -3.49677 
1503 2 -0.575019 -5.58925 -4.28656 
1747 2 0.278807 -5.60833 -3.7863 
1984 2 1.96598 -4.55194 -4.47219 
1486 2 1.11087 -5.20168 -4.09912 
1563 2 1.88821 -4.90929 -3.57532 
575 1 2.48931 -5.43079 -4.37615 
43 1 2.42323 -5.86359 -3.69418 
1828 2 2.54556 -4.3923 -3.90508 
64 1 3.27011 -5.65918 -3.48346 
931 1 3.39 -5.16973 -4.04022 
131 1 4.22283 -4.92565 -3.90966 
1714 2 4.98388 -5.4784 -4.5709 
2034 2 5.41004 -5.79031 -3.76059 
339 1 5.89173 -4.51397 -3.80016 
75 1 -5.11707 -4.28025 -3.62093 
1411 2 -4.05863 -4.51187 -4.4909 
465 1 -4.50045 -3.76804 -3.84253 
441 1 -3.81282 -3.79339 -3.24223 
1425 2 -3.20021 -4.18521 -4.37957 
1602 2 -2.3208 -3.92778 -3.98005 
1991 2 -2.20626 -4.34053 -3.36337 
1046 2 -3.12297 -4.53867 -3.45425 
107 1 -1.02089 -4.62006 -4.46828 
1881 2 -1.32216 -4.06416 -3.52344 
227 1 -0.191551 -4.3854 -4.5557 
416 1 -0.339136 -4.78673 -3.63154 
249 1 0.366795 -4.32389 -3.9573 
20 1 0.975441 -3.82805 -4.26 
938 1 1.61692 -3.86214 -3.73313 
136 1 1.76984 -3.37025 -4.39473 
2004 2 3.40562 -4.05169 -4.15018 
1019 1 2.3923 -3.27886 -3.7609 
2019 2 4.27142 -3.83785 -3.76461 
1592 2 3.59948 -4.26514 -3.37037 
1319 2 5.38547 -3.5325 -3.77667 
284 1 5.06964 -4.49916 -3.83752 
1937 2 -4.97879 -2.75291 -3.85436 
784 1 -5.77613 -2.2235 -3.02155 
1750 2 -5.57694 -3.20066 -3.45244 
2032 2 -3.28725 -1.91336 -4.23727 
965 1 -3.37334 -3.41734 -3.77249 
1296 2 -4.05451 -2.4252 -3.9252 
1465 2 -4.30668 -2.27961 -4.65499 
150 1 -2.48815 -2.96295 -3.73577 
151 1 -1.44917 -2.72599 -3.72815 
236 1 -0.513179 -2.22279 -3.93061 
1581 2 -0.617149 -3.51169 -4.03213 
1231 2 0.0852031 -3.45899 -3.36753 
1894 2 0.71676 -2.85448 -3.75356 
1947 2 1.30842 -2.40945 -4.49222 
639 1 2.8198 -3.20144 -4.49261 
1363 2 1.82691 -1.87972 -5.09208 
1923 2 2.3109 -2.12639 -4.40054 
485 1 3.68643 -2.6112 -4.32983 
928 1 4.70587 -2.1635 -4.04042 
1001 1 3.37555 -2.91315 -3.62912 
1483 2 -5.85388 -3.00967 -4.35692 
550 1 5.53129 -2.39789 -3.67954 
771 1 -5.13345 -1.48056 -4.53491 
179 1 5.90847 -1.91271 -4.18115 
205 1 -5.29126 -1.88703 -3.64865 
2035 2 -5.4294 -1.00247 -3.45143 
161 1 -4.47998 -1.44896 -3.8784 
948 1 -3.31837 -1.06311 -3.40213 
1664 2 -2.88215 -1.80954 -3.53467 
717 1 -2.4728 -0.656756 -3.69711 
1097 2 -2.4156 -1.60711 -4.40954 
1870 2 -1.60105 -1.31518 -4.28171 
1573 2 -1.94367 -1.76287 -3.59416 
599 1 0.204973 -1.8845 -3.88245 
657 1 -0.127683 -1.69481 -4.73737 
1223 2 -1.11346 -1.44837 -3.4848 
830 1 0.793893 -1.3523 -4.29969 
421 1 1.58962 -1.26693 -3.98197 
691 1 2.60847 -1.13113 -3.17326 
427 1 2.28319 -1.05266 -4.09799 
1946 2 3.036 -1.54882 -4.905 
1259 2 2.99637 -1.93548 -3.99617 
1083 2 4.59058 -1.28274 -4.11016 
1738 2 3.70914 -1.46923 -3.94231 
1128 2 4.0998 -1.68481 -3.04432 
42 1 2.88121 -0.686766 -3.82158 
2014 2 5.11809 -0.796416 -4.53968 
1775 2 5.15343 -1.266 -3.34421 
1634 2 5.74413 -0.975059 -3.89174 
1030 2 -5.31433 -0.497148 -4.26737 
1792 2 -4.52959 -0.186925 -3.73918 
278 1 -5.7464 0.299719 -3.50628 
2048 2 -3.74956 0.205274 -4.18545 
1184 2 -3.83081 -0.176327 -3.01214 
214 1 -3.11757 -0.710078 -4.19764 
1754 2 -3.03267 0.285781 -3.46248 
1104 2 -2.27659 0.245059 -2.94084 
1310 2 -2.98032 -0.174555 -2.60522 
848 1 -1.75538 -0.222206 -3.69911 
254 1 -1.41334 0.100666 -4.82069 
789 1 -0.987303 -0.368191 -3.03456 
704 1 -0.898795 0.114207 -4.0698 
1500 2 -0.640441 -0.895049 -4.19609 
1673 2 0.246923 -0.733408 -3.79403 
594 1 -0.138091 0.300624 -3.47667 
1644 2 1.1025 -0.123554 -4.26281 
1057 2 1.15437 -0.382074 -3.41613 
872 1 2.61644 -0.533235 -4.63566 
1963 2 1.99396 0.180837 -4.09078 
2008 2 3.02589 0.395478 -3.85755 
900 1 4.35849 0.0776304 -4.5445 
125 1 3.48263 -0.495413 -4.52733 
715 1 5.24076 0.389551 -4.56327 
32 1 5.23077 0.0821273 -3.67 
697 1 -4.24695 1.10941 -4.09276 
397 1 -5.11729 0.745712 -3.88325 
912 1 -5.79393 0.544098 -4.52283 
824 1 -3.42783 1.48244 -4.03046 
903 1 -2.72439 1.37083 -3.71453 
1876 2 -2.67062 0.494184 -4.1409 
1015 1 -2.37325 2.01253 -4.24543 
1830 2 -1.72388 0.82976 -3.67595 
1550 2 -0.978242 0.933886 -3.19597 
1884 2 0.654285 1.5748 -3.03011 
1962 2 -0.331989 1.33688 -3.60534 
80 1 0.245466 0.620498 -4.18105 
1021 1 0.772361 0.541416 -3.46718 
551 1 1.44872 0.982581 -4.06032 
382 1 2.36839 1.50367 -4.30019 
895 1 1.81639 0.920615 -3.37474 
447 1 3.09677 1.77146 -4.11901 
760 1 3.40624 1.50002 -3.4266 
1172 2 4.17698 0.840224 -3.65016 
1696 2 4.5022 1.30349 -4.47856 
1777 2 5.86748 1.65695 -4.16573 
1986 2 5.05483 1.20242 -3.92761 
676 1 -5.78431 3.27226 -5.04674 
1728 2 -4.51192 2.10252 -3.8986 
1068 2 -5.22457 2.02099 -4.38527 
882 1 -5.4197 2.96007 -4.06169 
1938 2 -2.97758 2.98315 -4.34172 
1512 2 -3.93239 2.69756 -4.45318 
1092 2 -3.32233 2.55305 -3.70681 
322 1 -3.85185 3.32671 -3.25934 
1839 2 -3.93134 2.17406 -3.00889 
1959 2 -2.19142 3.39714 -4.36687 
1794 2 -2.39043 2.75546 -3.53051 
1175 2 -1.55119 3.21792 -3.80802 
982 1 -1.30574 2.07493 -3.36649 
709 1 -1.38629 2.31919 -4.24199 
593 1 -0.49014 2.37256 -3.17002 
1298 2 0.388325 1.67048 -3.98022 
885 1 0.433305 3.36244 -4.63742 
491 1 -0.549922 2.76998 -4.41516 
552 1 0.310354 2.70835 -3.67516 
1054 2 1.36027 1.96463 -3.67351 
896 1 1.78653 3.25799 -3.45748 
1967 2 2.13828 2.44089 -4.05315 
1653 2 2.83648 2.90001 -4.45803 
1461 2 2.91346 2.72067 -3.71392 
574 1 3.83621 2.16478 -4.47352 
1011 1 3.9716 1.93985 -3.70579 
2020 2 3.76377 3.053 -4.00564 
631 1 5.79686 2.59736 -3.61636 
726 1 4.80126 2.5075 -4.18625 
298 1 -4.52953 3.507 -4.09924 
1278 2 -4.72926 4.50734 -3.67194 
45 1 -3.7652 3.88091 -4.06242 
1417 2 -3.94693 4.78655 -3.57545 
323 1 -2.95561 4.24107 -4.12447 
751 1 -2.13204 4.35695 -4.02499 
460 1 -2.79118 3.75896 -3.2926 
772 1 -1.6475 4.25097 -3.28629 
1142 2 -0.92279 3.71799 -4.12184 
1247 2 -0.837083 3.35642 -3.30866 
1625 2 -0.0193048 4.13575 -4.12147 
1593 2 0.397456 4.55444 -4.92689 
1668 2 -0.0885123 3.58872 -3.37825 
1071 2 0.703636 3.98269 -3.32297 
394 1 2.01062 3.67271 -4.25341 
448 1 1.1896 3.4654 -4.1983 
262 1 2.70186 3.97369 -4.31719 
775 1 2.62886 3.77881 -3.44257 
143 1 3.50457 3.88057 -3.55221 
1562 2 4.22404 3.59506 -4.51587 
2039 2 4.52604 3.1982 -3.39196 
370 1 4.14832 4.40637 -3.96453 
1977 2 5.90936 4.07202 -4.34714 
1072 2 -5.42876 3.92133 -3.57423 
1349 2 5.09092 3.80327 -3.99717 
412 1 -5.58025 5.48325 -4.34003 
166 1 -5.58708 5.78403 -5.2378 
825 1 -5.18375 5.3806 -3.42754 
1138 2 -3.39245 5.31432 -4.36426 
1008 1 -3.60568 5.98032 -3.45989 
1510 2 -2.20782 5.48676 -3.71015 
1127 2 -2.9177 5.17227 -3.62127 
276 1 -0.900953 4.67358 -3.61347 
1038 2 -1.47462 5.43741 -3.26176 
123 1 -1.41131 4.85868 -4.44045 
41 1 -0.0932352 5.01098 -4.01279 
638 1 0.21574 5.4972 -4.75659 
612 1 0.259875 4.96768 -3.17757 
2040 2 0.899406 4.38908 -4.10876 
959 1 1.69006 5.79833 -4.04725 
165 1 0.750343 5.45426 -3.98541 
1145 2 2.07312 4.88083 -4.51797 
1042 2 1.84409 4.52429 -3.64163 
1764 2 2.82308 5.15994 -4.03631 
1875 2 3.73127 5.3294 -3.72289 
1846 2 4.6942 5.70847 -3.46496 
835 1 4.65814 4.96032 -4.43112 
699 1 5.31853 5.40545 -4.83308 
662 1 5.59375 5.02596 -3.91477 
181 1 4.85276 4.6941 -3.61512 
1612 2 -5.21812 -5.38017 -3.31569 
1192 2 -5.87361 5.91313 -3.02012 
1126 2 -4.92161 -5.57086 -2.54511 
273 1 -5.3888 -4.52071 -2.60539 
2016 2 -5.7224 5.90875 -2.13372 
1548 2 -4.1979 -5.12379 -2.85224 
119 1 -2.87353 -5.82179 -3.10415 
1047 2 -3.2609 -4.98553 -2.62864 
974 1 -1.93617 5.89714 -1.75139 
260 1 -1.28449 -5.34947 -3.21405 
229 1 -1.27846 -5.64992 -2.03305 
1014 1 -2.00974 -5.56402 -2.79399 
1928 2 0.0857583 -5.96102 -2.91704 
1543 2 0.747939 -5.83622 -2.41175 
295 1 0.0984779 -5.06483 -2.23016 
305 1 -0.692464 -5.25187 -2.54092 
1344 2 1.16342 -5.43208 -3.21515 
1957 2 1.52143 -5.4859 -2.45359 
459 1 0.909562 -4.62361 -2.16179 
2017 2 2.98159 -4.63154 -3.12495 
1749 2 2.94982 -4.95678 -2.3707 
1915 2 2.21827 -5.08766 -2.76064 
667 1 4.15171 -5.33493 -3.08716 
847 1 3.45664 -5.80669 -2.57183 
955 1 4.97721 -5.41781 -2.3489 
19 1 4.9321 -4.99594 -3.09754 
798 1 5.81294 -4.96952 -2.13614 
251 1 -4.58363 -4.15776 -2.92779 
878 1 5.6819 -4.98765 -2.94543 
269 1 -4.25018 -4.36396 -2.20676 
71 1 -3.4421 -3.95258 -2.59625 
634 1 -2.87439 -3.4753 -3.04956 
753 1 -2.50624 -3.66156 -2.21656 
1394 2 -2.46264 -4.63264 -2.65892 
1848 2 -0.631414 -3.80621 -3.09395 
1079 2 -1.5055 -4.44992 -2.61517 
1896 2 -0.561364 -4.02302 -2.3036 
954 1 0.418986 -4.74921 -3.00042 
1942 2 0.24798 -3.57999 -2.512 
257 1 1.48855 -4.19443 -2.59692 
569 1 1.01223 -4.32241 -3.31613 
1658 2 1.0293 -3.37043 -2.21296 
981 1 2.92513 -3.3719 -2.99029 
934 1 2.1659 -3.90412 -3.00382 
1657 2 4.32047 -4.22589 -2.80878 
1232 2 3.58654 -4.58536 -2.57108 
1737 2 4.43939 -4.52543 -1.93715 
1871 2 5.12593 -3.93779 -2.84047 
1836 2 5.34684 -4.10296 -1.97625 
1655 2 -5.9247 -3.69668 -2.69778 
1851 2 -4.56264 -3.35606 -2.06356 
1817 2 -5.07259 -3.15571 -2.73965 
471 1 5.45662 -2.67836 -2.53877 
140 1 -4.83773 -2.05585 -2.8198 
1545 2 -4.43934 -2.79241 -3.15933 
1442 2 -3.90255 -2.93771 -2.55798 
636 1 -4.24752 -1.99224 -2.20967 
1867 2 -2.41496 -2.33301 -2.88728 
1902 2 -3.51204 -2.51727 -3.19945 
1478 2 -3.08355 -2.53558 -2.39679 
816 1 -1.90686 -3.26837 -3.04786 
677 1 -0.964769 -2.69641 -3.08968 
411 1 -0.985215 -3.0978 -2.2932 
398 1 -1.69881 -3.44361 -2.28336 
1911 2 -2.14386 -2.39881 -2.15462 
313 1 -0.246617 -2.47097 -3.15028 
1457 2 0.951482 -3.32879 -3.13208 
844 1 0.510309 -2.30228 -2.7471 
388 1 -0.137486 -2.69524 -2.19288 
1263 2 1.53639 -2.50909 -3.66181 
1878 2 1.85681 -2.82585 -2.77781 
597 1 1.34601 -1.98972 -2.48075 
1580 2 2.37026 -2.33872 -3.44812 
1645 2 3.37604 -1.9973 -3.04188 
1787 2 2.60834 -2.4623 -2.57162 
352 1 3.77922 -3.29777 -2.87061 
1641 2 3.42389 -2.28324 -2.31339 
914 1 4.1836 -2.75182 -3.57099 
754 1 4.97084 -2.80611 -3.2439 
311 1 4.54249 -3.05599 -2.30417 
1279 2 -5.27745 -1.20078 -2.46283 
1163 2 -4.795 -0.660763 -3.05419 
344 1 -3.54381 -1.91652 -1.6491 
592 1 -4.1582 -1.50929 -3.14386 
917 1 -3.54284 -1.43567 -2.59715 
1978 2 -4.57857 -0.896815 -2.04084 
37 1 -2.51784 -1.15205 -2.87942 
1908 2 -1.59608 -1.95755 -2.75695 
1537 2 -1.34653 -2.22009 -1.93638 
234 1 -2.10151 -1.29764 -1.64005 
1345 2 -0.305423 -1.05203 -3.3516 
1456 2 -0.690498 -1.5589 -2.67674 
1517 2 0.162851 -1.33772 -2.39071 
1804 2 0.609167 -0.894149 -2.85248 
287 1 0.856843 -1.77326 -3.45673 
705 1 1.87368 -1.50878 -3.09564 
2046 2 1.57544 -0.637785 -2.66303 
377 1 2.29156 -1.56944 -2.15414 
640 1 3.25257 -0.95368 -2.67399 
700 1 3.59106 -0.732051 -3.42343 
116 1 4.00596 -1.12252 -1.88012 
198 1 4.30998 -0.751234 -2.75686 
1299 2 4.87552 -1.82651 -2.91714 
1237 2 5.89009 -1.21496 -2.96714 
1286 2 5.4022 -1.73647 -2.2746 
299 1 -5.00969 0.30704 -2.65335 
654 1 -5.37947 -0.136604 -2.06027 
1350 2 -3.98368 -0.576048 -2.26104 
1826 2 -3.83245 -1.05036 -1.34772 
818 1 -4.19603 0.518837 -2.27181 
1206 2 -3.33043 -0.65678 -1.83868 
1025 2 -2.21927 -0.0802466 -2.03864 
499 1 -1.75865 -0.814781 -2.95485 
1834 2 -1.42971 0.176951 -2.05441 
615 1 -1.44033 -0.809415 -2.20863 
886 1 -0.316719 -0.168049 -2.65642 
121 1 0.408962 -0.214396 -1.92265 
517 1 0.522416 0.146466 -2.65698 
749 1 1.35107 0.115596 -2.03444 
1832 2 2.6369 -0.291331 -2.38412 
1952 2 2.05946 -0.192537 -3.33554 
1529 2 2.86613 0.112008 -3.05431 
1220 2 4.79124 0.880184 -3.16343 
2027 2 3.79969 0.367604 -3.09972 
241 1 4.23529 -0.324417 -3.65812 
1059 2 4.51448 0.38669 -2.40204 
708 1 -5.86523 -0.138515 -2.81 
297 1 5.00892 -0.36191 -2.96509 
1361 2 -5.41904 1.65383 -3.41156 
1282 2 -4.79331 1.69182 -3.03626 
2030 2 -5.46592 1.21711 -2.52356 
94 1 -4.47476 0.724112 -3.19775 
1803 2 -3.91112 1.51541 -1.43562 
164 1 -3.73908 1.06507 -3.29597 
686 1 -3.3602 0.735375 -2.3238 
613 1 -2.19824 1.12106 -2.02862 
310 1 -2.75537 1.18679 -2.72935 
719 1 -1.99815 1.77693 -3.3439 
1643 2 -1.62522 0.495283 -2.7423 
494 1 -1.70829 1.52609 -2.58177 
1436 2 -0.693902 0.807 -2.34011 
1683 2 -0.0630751 1.07275 -2.80444 
240 1 -1.25326 1.36162 -1.6469 
1187 2 0.338143 0.938468 -2.03156 
90 1 1.42367 0.571589 -2.73897 
1642 2 1.54551 1.95828 -2.92293 
1158 2 2.29686 2.18921 -3.28028 
1050 2 1.1833 1.35206 -2.26548 
842 1 2.31569 0.857615 -2.64809 
894 1 2.63083 1.31801 -3.48361 
1994 2 2.30252 1.79572 -2.34497 
232 1 4.26964 1.7511 -2.8639 
621 1 3.29406 1.15391 -2.67739 
1468 2 5.39687 0.785347 -2.51293 
1320 2 5.78301 1.20701 -3.19688 
944 1 4.89723 1.75067 -2.17142 
731 1 -5.40967 2.62467 -3.03894 
204 1 -4.73298 2.92186 -3.42569 
351 1 -5.09494 2.51133 -2.27346 
1654 2 -4.1353 1.73701 -2.33171 
568 1 -3.61618 2.90121 -2.35741 
879 1 -4.3946 2.88538 -2.5327 
2021 2 -2.97808 2.29761 -2.99626 
1689 2 -2.34686 2.43308 -2.39975 
1679 2 -3.27043 1.96948 -2.08588 
1415 2 -1.5595 2.92897 -2.92363 
1485 2 -1.12161 2.739 -2.22556 
301 1 -0.891029 1.83238 -2.5338 
478 1 0.186355 2.35342 -2.58007 
1997 2 0.447186 3.00241 -1.60678 
561 1 0.955102 2.83144 -3.198 
660 1 0.920511 2.42252 -2.17834 
937 1 1.72254 2.82488 -2.61964 
1769 2 3.051 2.42099 -2.93731 
828 1 2.58769 2.99656 -2.0055 
1105 2 3.70919 2.90836 -3.14247 
1065 2 3.95389 2.54733 -2.22001 
1686 2 4.57512 2.94873 -2.54213 
171 1 4.8737 2.15238 -3.38002 
702 1 5.60022 2.22295 -2.78029 
1662 2 5.32703 3.21586 -2.54653 
1670 2 -4.89043 4.00211 -2.89555 
1333 2 -5.53388 3.16905 -1.34374 
443 1 -5.53113 4.79606 -2.57082 
1048 2 -4.22261 4.31879 -2.82842 
1971 2 -3.53934 4.16025 -2.27955 
1757 2 -4.94481 3.61583 -2.07337 
381 1 -2.99537 3.30893 -2.69632 
111 1 -2.14615 3.78096 -2.69895 
1419 2 -2.73654 4.37171 -2.02019 
17 1 -1.1365 4.16833 -2.71773 
733 1 -0.628201 4.14217 -1.93221 
871 1 -0.304092 4.45921 -2.84126 
1183 2 -0.280352 3.34734 -2.44192 
1406 2 0.626374 3.70391 -2.40948 
1267 2 1.42881 4.13535 -2.86693 
1869 2 1.27536 3.59889 -2.08681 
256 1 2.53454 3.29685 -2.80975 
1499 2 2.10541 4.46594 -2.81343 
1854 2 3.09371 4.8355 -2.50365 
582 1 3.40214 3.37292 -1.96067 
34 1 4.3085 4.16847 -3.02451 
906 1 3.32239 3.78542 -2.72675 
641 1 4.23038 3.88044 -2.19113 
1786 2 5.50776 3.60683 -3.34098 
918 1 -5.98261 4.39797 -2.00411 
742 1 5.3283 4.45982 -2.76675 
1554 2 -5.66418 3.52939 -2.59772 
961 1 -4.80699 5.31794 -2.50058 
453 1 -4.17457 5.64968 -3.05953 
1413 2 -3.22083 4.61587 -2.92601 
579 1 -3.52912 5.42624 -2.46975 
506 1 -4.27656 4.96923 -1.94529 
589 1 -2.55967 5.7851 -2.32233 
1575 2 -2.43594 4.86257 -2.87721 
1191 2 -0.773509 5.50099 -2.46669 
1339 2 -1.6245 5.07994 -2.46472 
516 1 0.165782 4.46577 -2.07183 
1136 2 0.00506839 5.49238 -2.13705 
361 1 0.981881 5.01646 -2.65264 
736 1 1.3298 5.34832 -3.36588 
343 1 1.79951 5.35752 -2.25866 
1926 2 2.91695 4.85587 -3.31236 
182 1 2.6909 -5.90493 -2.66703 
487 1 2.09078 5.46021 -3.019 
422 1 2.49978 5.54431 -1.98445 
1318 2 3.79347 5.06424 -2.95271 
1405 2 3.81683 4.84423 -1.94751 
1489 2 4.65527 5.05571 -1.81716 
1100 2 4.51557 5.22492 -2.64654 
946 1 5.83454 4.69179 -3.25288 
1699 2 5.25225 5.59161 -2.77509 
1362 2 5.51615 5.36835 -1.82898 
504 1 -5.01808 -4.69574 -1.72273 
524 1 -4.26028 -4.76386 -1.27686 
864 1 -4.87018 -5.15291 -0.739466 
724 1 -5.73609 -5.46919 -0.503307 
1272 2 -3.78044 -5.57709 -1.97574 
1285 2 -2.88943 -5.26965 -1.7399 
329 1 -3.37786 -4.61362 -1.04816 
1312 2 -3.39142 -5.72693 -1.02228 
1454 2 -2.16125 -4.81443 -1.81434 
1040 2 -2.54893 -5.5244 -0.858158 
326 1 -1.10814 5.88153 -1.06426 
1477 2 -1.76643 -5.12183 -1.08896 
672 1 -0.2884 -5.54066 -1.61275 
317 1 0.496175 -5.15635 -1.22797 
1611 2 1.45007 -5.71221 -1.52032 
455 1 1.20873 -4.76695 -1.31119 
1530 2 3.08834 -5.2288 -1.24685 
1859 2 2.17971 -5.29313 -1.88502 
1880 2 2.2991 -5.68696 -0.957011 
1765 2 3.78381 -4.95485 -1.70324 
1487 2 4.09695 -5.07666 -0.899955 
1129 2 4.90744 -4.49444 -1.32217 
802 1 -5.88304 -5.19952 -1.36087 
153 1 5.14322 -5.52826 -1.51193 
2010 2 -5.39564 -3.66116 -1.95918 
1948 2 -5.24973 -3.92354 -1.01292 
1449 2 -4.4296 -3.6939 -1.31001 
21 1 -3.51481 -4.35192 -1.88707 
1400 2 -4.38041 -4.00851 -0.596342 
890 1 -2.83917 -4.1653 -1.48053 
875 1 -1.90811 -3.88914 -1.4343 
366 1 -2.40356 -4.3749 -0.820703 
1783 2 -1.26722 -4.69897 -1.80124 
526 1 -0.858994 -3.63035 -0.622945 
1613 2 -0.474037 -4.42501 -1.55092 
1753 2 -1.07636 -4.81188 -1.04147 
1748 2 0.284423 -3.93161 -1.68261 
1535 2 0.745033 -4.03128 -0.732965 
1812 2 1.17097 -3.56303 -1.24835 
661 1 2.49254 -4.04137 -2.11635 
245 1 2.51695 -4.26403 -1.18259 
286 1 1.79053 -4.36371 -1.64129 
1798 2 2.10683 -3.38635 -0.836959 
100 1 3.25034 -3.70768 -2.11851 
328 1 3.32089 -4.11544 -1.38366 
321 1 4.08305 -3.63541 -1.75112 
522 1 4.51826 -3.5505 -0.894303 
1844 2 5.82675 -4.10792 -1.16995 
602 1 5.17791 -3.34336 -1.42933 
213 1 5.8881 -3.0427 -0.817463 
532 1 -5.41795 -2.40744 -2.25584 
58 1 -5.30296 -2.7081 -1.38567 
2007 2 -3.73803 -3.30492 -1.79868 
734 1 -4.74262 -2.68197 -0.713228 
767 1 -4.57048 -2.3958 -1.58807 
99 1 -3.85307 -2.52515 -1.05291 
1993 2 -3.02036 -2.98728 -1.57692 
1077 2 -2.12793 -2.76985 -1.28769 
1069 2 -2.782 -3.25113 -0.688199 
986 1 -1.0709 -3.52896 -1.48865 
1574 2 -1.2152 -2.64016 -1.05196 
1289 2 -0.51646 -2.1941 -0.958298 
11 1 -0.239563 -3.10096 -1.40627 
347 1 0.522673 -2.82729 -0.843952 
998 1 0.721213 -2.51507 -1.86858 
566 1 1.39968 -2.39719 -0.974952 
106 1 1.71161 -2.18121 -1.65547 
1973 2 1.85772 -3.16185 -1.77015 
1066 2 2.92149 -3.14642 -0.946361 
626 1 2.59673 -1.87555 -1.24761 
1708 2 2.57749 -2.8016 -1.7003 
1167 2 3.46915 -2.60107 -1.55341 
1148 2 4.31579 -2.11241 -2.29299 
968 1 5.5948 -2.82292 -1.8236 
1996 2 4.75137 -2.37447 -1.43107 
1492 2 5.51691 -1.91882 -1.13943 
1940 2 -5.64709 -1.64375 -1.88754 
1393 2 -4.91794 -1.43648 -1.4408 
1352 2 -4.40044 -1.46642 -0.774674 
548 1 -2.71751 -1.4631 -2.17222 
963 1 -1.94351 -1.69963 -0.890026 
682 1 -2.65431 -1.94875 -1.36127 
1337 2 -2.89442 -0.906119 -0.978852 
419 1 -0.415173 -0.866245 -1.01099 
630 1 -1.27259 -1.14946 -1.4935 
1781 2 -0.58888 -1.88341 -1.87086 
1635 2 0.130514 -1.68371 -1.47831 
1568 2 0.760326 -1.26878 -1.86668 
1682 2 1.17242 -1.42226 -0.967583 
1659 2 1.63005 -0.865018 -1.71339 
867 1 3.29567 -1.41012 -1.82763 
1819 2 2.46221 -0.577457 -1.52238 
1266 2 2.00474 -1.21818 -0.642438 
846 1 3.43206 -1.78724 -1.00322 
518 1 4.26974 -1.37809 -1.1155 
1858 2 3.58062 -0.278787 -1.38357 
279 1 4.82918 -0.892657 -1.88277 
737 1 5.77285 -0.769939 -1.27594 
983 1 5.18863 -0.996054 -0.803616 
489 1 -4.61677 -0.016827 -1.67594 
692 1 -5.19151 -0.606047 -1.08403 
472 1 -3.90844 0.382118 -1.32156 
259 1 -3.37419 0.0586597 -0.715392 
969 1 -4.31085 -0.273011 -0.780229 
1972 2 -2.6534 -0.298342 -1.45425 
921 1 -3.05178 0.6276 -1.70499 
1893 2 -2.10511 -0.644813 -0.742619 
1432 2 -1.68021 -0.215089 -1.2858 
1589 2 -0.910449 0.00281511 -1.18228 
1761 2 -1.0457 -0.278905 -0.456233 
776 1 -0.538879 -0.61744 -1.94668 
1067 2 -0.289525 0.261631 -0.541797 
502 1 0.299967 -0.556891 -1.1395 
625 1 1.02147 -0.0657188 -1.17568 
601 1 1.86881 -0.047588 -0.945835 
408 1 2.15821 0.41062 -1.82852 
50 1 2.64163 0.447139 -0.963618 
1505 2 3.54136 -0.0356588 -2.3058 
1897 2 4.43881 -0.227472 -0.766786 
1508 2 4.34092 0.0367232 -1.61728 
958 1 5.73937 -0.56744 -2.01995 
1672 2 -5.59643 0.492441 -0.814551 
1045 2 5.12875 0.385062 -1.59698 
2038 2 -5.04225 0.921598 -1.3268 
1003 1 -5.44893 1.97626 -1.35988 
1622 2 -4.82272 0.6155 -0.454318 
1229 2 -4.78878 1.32968 -1.98547 
1720 2 -4.20382 1.14254 -0.775074 
2047 2 -3.2247 1.57234 -0.994708 
115 1 -2.0001 0.807849 -1.22687 
1727 2 -2.5245 2.09836 -1.62089 
585 1 -1.35063 0.819676 -0.638271 
2043 2 -0.529821 0.445086 -1.6872 
1386 2 0.190011 0.683711 -1.15913 
134 1 -0.380492 1.59797 -1.10902 
823 1 0.662706 1.96099 -1.58924 
1373 2 1.35656 0.86003 -0.593188 
1681 2 0.986988 0.976418 -1.30105 
1825 2 3.17946 1.9412 -2.13958 
1297 2 1.77641 1.41583 -1.64805 
1134 2 2.70966 1.61102 -1.29178 
243 1 3.02723 0.858517 -1.87053 
194 1 3.85966 1.0998 -2.12858 
783 1 3.52559 0.740888 -1.25687 
1564 2 -5.89631 0.769099 -1.7834 
761 1 5.39043 1.54137 -1.39804 
464 1 4.27146 1.06943 -1.38303 
811 1 5.86093 2.06753 -2.10481 
446 1 -4.73773 2.24718 -1.60179 
1811 2 -5.85837 2.73014 -0.687464 
1669 2 -5.05578 2.92483 -0.216313 
1000 1 -4.46078 2.18887 -0.78623 
966 1 -3.99439 2.66977 -1.5177 
294 1 -3.13898 2.88499 -1.46415 
739 1 -3.58026 2.41532 -0.686068 
16 1 -2.59647 2.85401 -0.804214 
1304 2 -1.65816 2.37374 -1.4758 
1981 2 -1.79358 1.93197 -0.81231 
1983 2 -0.856293 2.3939 -1.25064 
1268 2 -0.39873 2.96134 -1.73698 
208 1 -0.13675 1.74282 -1.96962 
747 1 1.93405 2.49174 -1.6872 
1974 2 1.03332 3.02514 -0.778739 
44 1 1.31292 2.26462 -1.21831 
945 1 2.63641 2.71874 -1.28424 
510 1 3.39986 3.01539 -1.15851 
1522 2 4.69888 2.66336 -1.7158 
1838 2 3.53137 2.01368 -1.49498 
1866 2 4.28444 2.00208 -0.989638 
1636 2 5.48872 2.7637 -1.27357 
1330 2 5.8304 3.12589 -1.92018 
355 1 -5.0696 4.5294 -1.65214 
13 1 -5.079 4.16901 -0.575896 
1056 2 -4.84928 3.16471 -1.03142 
1335 2 -4.15041 3.77892 -1.87786 
1814 2 -3.93412 3.53984 -0.936154 
132 1 -4.36816 4.53128 -1.0901 
520 1 -2.36074 3.32398 -1.91555 
1287 2 -3.30978 3.81559 -1.48006 
925 1 -1.81647 3.33901 -1.11959 
2033 2 -2.50267 4.11818 -1.10828 
26 1 -1.61879 3.75426 -1.99965 
418 1 -1.09259 3.47906 -1.31507 
224 1 -0.444996 3.91659 -1.02383 
627 1 0.240105 4.02432 -1.37594 
1099 2 2.14854 3.46054 -0.677386 
905 1 0.737237 4.37175 -0.948698 
1913 2 1.53383 3.50972 -1.36222 
1428 2 2.19165 4.11023 -2.06549 
1161 2 3.01725 4.40816 -1.78643 
1610 2 2.56596 3.91255 -1.33193 
1234 2 3.80294 4.41669 -1.14641 
1178 2 3.12168 4.04621 -0.686909 
690 1 4.10164 3.40459 -1.42402 
650 1 4.94326 4.13779 -2.09559 
993 1 -5.81813 4.15151 -1.07971 
258 1 4.99663 3.77087 -1.27871 
1604 2 -4.92599 -5.84208 -1.73396 