ITEM: TIMESTEP
35200
ITEM: NUMBER OF ATOMS
2048
ITEM: BOX BOUNDS pp pp pp
-5.9389400326968564e+00 5.9389400326968564e+00
-5.9389400326968564e+00 5.9389400326968564e+00
-5.9389400326968564e+00 5.9389400326968564e+00
ITEM: ATOMS id type x y z 
1849 2 -5.36355 -4.63676 -5.20726 
514 1 -5.12465 -5.49435 5.62315 
1192 2 5.78018 -5.10379 -5.13915 
1759 2 -5.72804 -4.61818 5.74729 
333 1 -4.37477 -5.40056 -5.37309 
5 1 -3.5616 -5.06032 -5.07089 
91 1 -2.70252 -4.83796 -4.96496 
902 1 -1.85275 -4.69915 -4.64223 
1301 2 -2.08342 -5.49762 -5.50558 
1801 2 -1.236 -5.40906 -5.39649 
1571 2 -0.0587486 -4.82242 -5.85545 
1338 2 -0.348309 -5.29164 -4.96504 
1013 1 0.00146484 -5.7465 5.7111 
1563 2 0.633581 -4.83927 -5.20076 
575 1 0.830227 -5.63351 -5.66915 
223 1 1.72886 -5.5347 -5.20584 
481 1 3.03449 -4.87097 -5.41076 
442 1 3.07839 -4.54897 5.60568 
1239 2 4.03065 -5.54152 -5.69983 
675 1 3.87982 -4.68085 -5.2386 
1799 2 3.19653 -5.7797 -5.79464 
1307 2 5.35195 -5.03055 5.89415 
1714 2 4.89769 -5.32998 -5.25597 
283 1 -5.56663 -3.62121 -5.39271 
1103 2 -4.85592 -4.3383 -5.75319 
1249 2 -4.32531 -4.35132 -4.88517 
1467 2 -3.20536 -3.85261 -5.52169 
1358 2 -4.02844 -4.08513 -5.69993 
1559 2 -3.47412 -4.05517 -4.75886 
1472 2 -2.29896 -3.47432 -5.33799 
3 1 -2.54463 -4.49502 -5.77521 
765 1 -1.8285 -4.35701 -5.46519 
202 1 -1.09453 -4.47476 -4.82839 
1 1 -0.453406 -3.95191 -5.24967 
1495 2 -1.52129 -3.30093 -5.05203 
107 1 -0.343116 -4.35687 -4.38765 
782 1 -0.0023927 -3.62208 5.77455 
20 1 0.383339 -3.92479 -4.7561 
819 1 0.631508 -3.39313 -5.49616 
1984 2 2.2368 -4.14196 -5.44234 
136 1 1.39802 -3.34384 -4.79983 
1790 2 1.25929 -4.39208 -5.66162 
1236 2 2.4854 -4.33069 -4.74797 
1260 2 3.23892 -3.82885 -4.87057 
1374 2 2.81232 -3.58816 -5.76892 
1341 2 4.43189 -3.32914 -4.74791 
1528 2 3.86859 -3.36967 -5.43014 
49 1 4.0621 -4.211 5.87733 
622 1 5.74595 -4.10483 -4.85769 
684 1 4.71197 -4.29925 -5.10945 
857 1 5.25291 -3.99719 -5.72785 
1745 2 -5.51442 -2.38289 -5.45288 
353 1 -4.46349 -3.24472 -5.34745 
1475 2 -4.7405 -2.27753 -5.01381 
218 1 -3.69006 -2.96077 -5.01227 
967 1 -2.13294 -2.2036 -5.39878 
773 1 -2.4088 -1.9106 5.79272 
922 1 -2.78608 -2.69659 -5.09913 
2009 2 -1.18645 -2.83095 -5.85338 
1820 2 -1.11186 -2.61174 5.23399 
1555 2 -0.76322 -2.90894 -5.09155 
1326 2 -0.233587 -2.64313 -5.76346 
1923 2 1.48347 -2.1318 -4.89153 
1698 2 0.653289 -2.38504 -5.09607 
939 1 2.12372 -3.09166 -5.30092 
1946 2 1.4485 -1.92818 -5.75814 
639 1 2.77963 -2.49307 -5.55347 
485 1 2.69939 -2.90194 -4.72519 
277 1 3.57781 -2.39301 -5.03344 
33 1 4.02956 -2.16092 -5.6997 
385 1 4.80729 -1.99277 -5.05529 
1089 2 5.13162 -2.92767 -5.28667 
1705 2 5.31563 -3.2585 -4.35867 
1929 2 -5.91557 -2.77983 -4.85717 
403 1 -5.49015 -1.35531 -5.17248 
771 1 -4.83983 -0.877084 -5.54429 
1588 2 -3.51876 -1.3958 -5.71605 
212 1 -4.53658 -1.28426 -4.76251 
1296 2 -3.43748 -1.80174 -4.9261 
1171 2 -4.35968 -1.81042 -5.57977 
1713 2 -2.67889 -1.17635 -5.46462 
1414 2 -2.02567 -0.623251 5.83153 
8 1 -0.444106 -1.77406 -4.93818 
1975 2 -1.8028 -0.999524 -5.09159 
741 1 -1.39162 -1.88557 -5.87621 
35 1 0.224458 -1.49421 -4.9296 
657 1 0.643206 -1.09667 -5.69107 
367 1 -0.674167 -1.58637 -5.87798 
830 1 1.26443 -0.887866 -5.19452 
599 1 1.11405 -1.28342 -4.55441 
1982 2 2.66158 -1.77607 -4.4691 
1259 2 2.29613 -1.70006 -5.29035 
916 1 1.95236 -0.832766 -4.77628 
1615 2 3.2388 -1.33611 -5.00849 
1332 2 3.97814 -1.07488 -5.2881 
999 1 5.82851 -1.71717 -4.52791 
480 1 5.44591 -1.57897 -5.26096 
406 1 -5.83116 -1.12804 5.96287 
2036 2 -5.10482 0.427675 -5.98181 
1939 2 -5.05034 0.00247882 -5.08645 
1111 2 -4.39026 0.540965 -5.37227 
348 1 -3.86181 -0.536167 -5.05119 
505 1 -3.00477 -0.333708 -4.73859 
769 1 -3.17686 -0.198815 -5.55018 
374 1 -2.28608 0.217244 -5.45449 
848 1 -2.24817 -0.133916 -4.68796 
1243 2 -0.965484 -0.740603 -5.37678 
704 1 -1.55767 0.0718304 -4.93897 
1410 2 -1.24927 -0.307084 5.76098 
1870 2 -0.190474 -0.558896 -4.94586 
1809 2 -0.147432 -0.223188 -5.77098 
1570 2 0.606439 -0.31017 -4.61022 
1631 2 0.608174 0.0532514 -5.43478 
451 1 -0.704761 0.498673 -5.04466 
1180 2 1.38229 0.258837 -5.0401 
2008 2 2.18677 0.41156 -4.77751 
872 1 2.37139 -0.427045 -5.35804 
302 1 3.86955 0.0536323 -5.05317 
908 1 3.06924 -0.264269 -4.97807 
581 1 3.22364 0.136728 -5.76075 
1118 2 -5.75695 -0.375731 -4.7817 
1037 2 5.30019 -0.502441 -5.43577 
138 1 4.95308 0.522886 -5.36795 
1224 2 -5.91065 0.044775 -5.78287 
230 1 -5.38704 1.34591 -5.53937 
22 1 5.62015 0.92852 -5.54783 
1346 2 -4.51467 0.86853 5.43023 
360 1 -4.49435 1.85325 5.84087 
1736 2 -3.42915 0.879949 -5.54552 
94 1 -4.61817 1.44224 -5.135 
697 1 -3.94052 1.78899 -5.30596 
1498 2 -2.28356 1.39407 -5.21271 
1343 2 -2.92828 0.968241 -4.90545 
254 1 -1.53878 0.600488 -5.70653 
1797 2 -1.18869 1.69712 -5.20073 
1058 2 -0.757972 2.03222 -5.90486 
1256 2 -0.937258 1.36836 -4.41442 
244 1 -0.765554 1.01098 -5.8587 
827 1 0.072215 0.605921 -4.56252 
1222 2 -0.335457 1.89845 -5.09196 
570 1 1.69594 1.51539 -5.31666 
63 1 0.165326 1.0531 -5.42821 
1314 2 3.08572 0.849946 -4.76967 
1852 2 1.8623 0.536605 -5.72003 
1502 2 2.92828 1.08958 -5.65793 
118 1 2.59865 1.84732 -5.11424 
1226 2 3.75731 1.46228 -5.87332 
1210 2 3.823 1.15372 -5.11959 
1696 2 4.71718 1.45562 -5.03552 
1572 2 5.21937 2.065 -5.3635 
389 1 5.71037 1.32533 5.59461 
1225 2 4.51829 1.82474 -5.92946 
1717 2 -5.60146 2.2499 -5.19545 
1861 2 -4.95414 2.68644 -5.58822 
1403 2 -4.66643 2.4817 -4.71527 
1800 2 -4.08003 3.00064 -5.26175 
1431 2 -4.32626 3.13999 5.75045 
190 1 -3.32528 2.28341 -5.66961 
815 1 -2.1084 2.37601 -5.03948 
752 1 -3.05807 2.01754 -4.79748 
709 1 -1.38957 2.47296 -4.6311 
852 1 -1.31727 2.89899 -5.37233 
1979 2 0.101547 2.31616 -5.91345 
56 1 -0.0143803 3.12376 -4.91414 
1085 2 1.35621 2.34691 -4.5185 
1054 2 0.80836 2.35016 -5.2657 
1322 2 0.990371 2.84539 5.84999 
1653 2 1.56258 2.85161 -5.36501 
1214 2 3.32337 3.0797 -4.74583 
439 1 3.17353 2.42086 -5.57852 
869 1 3.94871 2.58483 -5.38967 
762 1 4.45968 2.95951 -5.82142 
96 1 5.10294 2.93402 -4.90303 
1810 2 5.74783 2.46927 5.95441 
755 1 5.87238 3.20244 -4.78378 
97 1 -5.76547 3.54467 -5.65104 
926 1 -5.1009 3.66776 -5.06434 
1088 2 5.90554 4.58806 -5.38578 
1207 2 -5.49439 4.56692 -4.62265 
676 1 -4.63406 3.97556 -5.66445 
923 1 -3.53645 4.22098 -5.12523 
369 1 -4.22295 3.88718 -4.74971 
989 1 -3.82613 4.51322 -5.92835 
1938 2 -3.32833 3.40635 -5.48004 
1959 2 -2.42598 3.43095 -5.22621 
1142 2 -2.28289 3.07707 -4.32416 
577 1 -2.67503 4.51216 -5.09373 
491 1 -0.660522 3.27535 -5.68226 
1336 2 -1.67991 3.88896 -5.00539 
1824 2 -0.80118 4.17608 -5.3157 
1756 2 0.100935 4.38578 -4.92915 
1607 2 1.04819 4.87734 -5.22782 
716 1 0.163935 3.42162 -5.72318 
956 1 0.951349 3.45003 -4.70181 
76 1 1.47123 3.3391 -4.04623 
501 1 1.00804 3.92101 -5.78242 
394 1 1.78509 3.8253 -5.04552 
653 1 2.70775 4.40234 -5.26026 
1274 2 2.58888 3.27871 -5.44826 
1562 2 3.98593 3.52351 -4.89909 
1640 2 4.26173 4.02269 -5.54483 
1146 2 3.34052 3.74067 -5.78663 
178 1 5.32946 3.29861 -5.86267 
1779 2 4.69179 3.78444 -4.58706 
1618 2 5.1679 4.16972 -5.32309 
1349 2 5.56819 4.27856 -4.5891 
1073 2 -5.14745 4.98576 -5.57212 
699 1 -5.21004 -5.61554 -5.37342 
1365 2 -4.47591 5.17676 -5.35448 
1138 2 -3.66412 5.16692 -4.79016 
2029 2 -3.39234 5.72097 -5.3321 
1526 2 -2.56629 5.71717 -4.91328 
146 1 -2.13144 5.0745 -5.45825 
509 1 -2.9572 4.88975 5.93305 
797 1 -1.25691 5.44269 -5.71647 
276 1 -1.45126 5.09409 -5.00089 
1692 2 0.0291731 4.71584 -5.66653 
340 1 -0.25792 5.71006 -5.45362 
836 1 -0.642851 5.10106 -4.77689 
959 1 0.364813 5.81376 -4.88483 
1145 2 1.7661 5.27737 -5.28782 
1354 2 0.754087 5.14387 5.76953 
432 1 3.39936 4.86997 -5.55007 
1901 2 2.75404 5.48209 -5.14899 
1764 2 2.30267 5.10266 -4.54594 
1090 2 3.74228 5.85269 -4.89811 
440 1 4.75909 5.01834 -4.78768 
1016 1 3.85283 4.80217 -4.80886 
255 1 4.25892 5.20471 -5.52134 
166 1 5.14294 5.53136 -5.32904 
181 1 5.89057 5.58841 -5.35285 
1227 2 -5.62392 -5.04268 -4.38514 
1699 2 -5.59259 -5.4001 -3.65409 
1931 2 -4.68502 -4.8144 -4.33002 
346 1 -4.81703 5.95264 -4.62523 
274 1 -4.03401 -5.78054 -4.57382 
147 1 -3.12759 -5.39686 -4.43884 
805 1 -2.99307 -5.58517 -3.60331 
1151 2 -0.884119 -5.77709 -4.38426 
467 1 -2.37959 -5.11009 -4.03108 
497 1 -1.51908 -4.96927 -3.92356 
1014 1 -1.35931 -5.3085 -3.13097 
227 1 -0.744652 -4.81849 -3.66283 
1503 2 -0.0470661 -5.5593 -4.11407 
1344 2 0.636362 -5.02748 -4.27755 
1747 2 0.534997 -5.4709 -3.51958 
1081 2 1.44636 -4.55298 -4.80623 
1828 2 1.43226 -5.01369 -3.82517 
43 1 1.17932 5.84353 -4.75077 
707 1 2.5427 -5.39249 -4.68755 
64 1 2.88974 -5.48492 -3.89492 
2004 2 2.11666 -4.54147 -4.05779 
931 1 3.52123 -5.12357 -4.53555 
511 1 4.37521 -4.77633 -4.38505 
1846 2 4.47186 -5.84749 -4.52581 
180 1 4.03099 -5.12028 -3.70561 
2034 2 5.44746 -5.42881 -4.49743 
1875 2 5.20691 -5.77851 -3.88543 
284 1 4.71464 -4.87588 -3.41211 
809 1 -5.09875 -3.65723 -4.73626 
280 1 -5.57795 -3.97551 -4.18487 
273 1 -5.00185 -4.06651 -3.63952 
373 1 -4.44363 -3.51586 -4.26039 
1390 2 -3.86687 -4.55991 -4.06395 
441 1 -3.69215 -3.31146 -3.37475 
1581 2 -2.62519 -3.85995 -4.64583 
1411 2 -2.97418 -4.27102 -3.87573 
1617 2 -2.12678 -4.21955 -3.54483 
1197 2 -1.70289 -3.73242 -4.24844 
1711 2 -1.26687 -3.89463 -3.27463 
416 1 0.159895 -4.48191 -3.67538 
569 1 0.934396 -3.96954 -4.04074 
938 1 1.6178 -3.77669 -3.5681 
547 1 1.99199 -3.51163 -4.20011 
2019 2 3.13607 -4.23809 -3.97418 
1198 2 3.91769 -3.8566 -4.23645 
1657 2 4.09303 -4.02305 -3.4178 
242 1 5.15015 -4.47037 -4.21086 
339 1 5.72223 -4.39606 -3.70634 
1995 2 4.69454 -3.59188 -3.83615 
1887 2 4.96632 -3.75094 -3.00636 
1483 2 5.64679 -3.39383 -3.39965 
1491 2 -5.20557 -2.5727 -4.51454 
1465 2 -4.83594 -2.80827 -3.71682 
1817 2 -5.40991 -3.19663 -3.09404 
196 1 -3.53534 -3.1961 -4.21771 
1902 2 -4.09548 -2.32333 -4.28069 
1478 2 -3.3212 -1.99609 -3.81351 
465 1 -2.70057 -2.97313 -4.1485 
965 1 -1.9654 -2.46168 -4.60186 
595 1 -2.11737 -2.95218 -3.49813 
1515 2 -0.934715 -3.48621 -4.17197 
151 1 -1.29038 -2.00287 -4.91938 
411 1 -1.31591 -2.47237 -4.04534 
236 1 -0.452638 -2.14846 -4.0734 
1848 2 -0.360887 -3.66123 -3.45221 
1894 2 0.0183374 -2.94767 -4.51 
1533 2 0.435697 -3.26585 -3.43404 
1250 2 0.746839 -2.62116 -4.1887 
1231 2 1.10906 -2.97184 -3.07366 
1580 2 1.41049 -2.53796 -3.85087 
1190 2 2.05527 -2.27538 -4.26096 
1947 2 2.38778 -2.40483 -3.42302 
475 1 3.45416 -2.7966 -4.29815 
914 1 3.76319 -2.83674 -3.63641 
928 1 4.27277 -2.42146 -4.50006 
179 1 4.55728 -2.51449 -3.73006 
161 1 5.15916 -2.11936 -4.2479 
1937 2 -5.87563 -2.98961 -4.04704 
784 1 5.42978 -2.34422 -3.39452 
592 1 -5.34065 -1.52324 -4.39486 
205 1 -5.54349 -1.91513 -3.72004 
917 1 -4.90065 -1.66276 -3.11021 
117 1 -4.46071 -1.37637 -3.90081 
948 1 -3.66034 -1.09776 -3.47741 
2032 2 -1.66972 -1.32438 -4.14376 
1664 2 -2.58475 -1.45567 -4.6072 
1097 2 -2.40227 -1.8046 -3.89671 
1271 2 -0.937652 -0.94779 -4.43927 
1573 2 -1.55668 -1.70537 -3.38016 
1223 2 -0.870029 -1.21035 -3.53876 
1500 2 -0.207185 -0.871402 -3.63326 
677 1 0.34838 -1.64159 -3.92712 
287 1 1.16333 -1.69225 -3.44696 
1057 2 0.671477 -0.696451 -2.96761 
1263 2 3.1343 -1.99978 -3.77297 
421 1 1.72201 -1.31566 -3.96051 
427 1 2.61886 -1.0638 -3.4075 
125 1 2.65849 -0.712927 -4.3361 
2014 2 4.51424 -1.15558 -4.67791 
1128 2 3.78901 -1.55325 -4.33312 
1257 2 4.21508 -1.58017 -3.57359 
1634 2 5.38803 -0.803618 -4.57704 
1299 2 4.94767 -1.2502 -3.71865 
1163 2 -5.89384 -0.854325 -3.90932 
1030 2 -4.69163 -0.415655 -3.36701 
1110 2 -4.47198 0.0898698 -4.50231 
1725 2 -5.11266 -0.44124 -4.15943 
818 1 -5.2938 0.652077 -3.8494 
833 1 -3.69528 -0.941147 -4.41019 
1792 2 -4.07104 -0.047088 -3.85694 
2048 2 -3.64228 0.546916 -4.65313 
214 1 -2.88916 -0.759732 -3.92845 
789 1 -2.03652 -0.598418 -3.70311 
1104 2 -3.26925 0.283633 -3.55269 
594 1 -1.40575 -0.103906 -3.99427 
80 1 0.432101 0.440322 -3.84472 
517 1 -0.466227 0.0897814 -4.13425 
1785 2 1.48815 -0.114394 -4.21594 
1644 2 0.665845 -0.605279 -3.80304 
2041 2 1.49524 -0.348544 -3.41317 
1952 2 2.15961 0.120351 -3.78204 
1529 2 2.99827 0.429882 -4.03242 
900 1 4.08514 -0.304164 -4.42703 
241 1 3.99502 -0.447138 -3.33221 
700 1 3.43792 -0.616126 -3.91925 
195 1 4.74375 0.140689 -4.59331 
469 1 5.61481 0.618723 -4.65333 
866 1 5.85653 0.251231 -3.79083 
715 1 5.06697 -0.195255 -3.60726 
397 1 -5.49433 0.930714 -4.65717 
1777 2 -5.55842 1.58081 -3.29797 
164 1 -4.4222 1.00583 -4.03284 
310 1 -3.66778 1.47239 -4.37904 
921 1 -3.62815 1.27893 -3.44639 
1754 2 -2.57818 0.74641 -4.19919 
824 1 -2.89085 1.79151 -3.97216 
2001 2 -1.58678 0.793564 -3.71889 
1876 2 -1.78111 1.12112 -4.54163 
1999 2 -0.63127 1.07041 -3.58313 
1962 2 0.0894581 1.34356 -3.31617 
1298 2 -0.0708548 1.63094 -4.22541 
534 1 0.917117 1.14868 -4.74161 
1506 2 0.54712 2.15256 -4.56216 
551 1 1.87391 1.37106 -4.49052 
401 1 1.2089 0.805755 -3.86983 
895 1 2.66179 1.56842 -4.11299 
842 1 2.01726 1.01046 -3.71098 
894 1 2.57503 1.23495 -3.05193 
2027 2 3.89145 0.819587 -4.19785 
447 1 3.39771 1.79878 -3.76857 
382 1 3.50442 2.03685 -4.65058 
1470 2 5.72082 1.82529 -4.59952 
1320 2 5.50986 1.45117 -3.79475 
1172 2 4.81055 1.04657 -4.10807 
1986 2 4.79673 0.868606 -3.31829 
1953 2 -5.28226 1.98107 -4.26732 
396 1 5.89245 2.93049 -3.99628 
631 1 -5.08462 2.92329 -3.47237 
731 1 -5.93214 2.611 -3.1828 
1068 2 -4.53938 2.20695 -3.88844 
1512 2 -3.8807 2.59852 -4.29055 
1092 2 -3.7539 2.2682 -3.39402 
1794 2 -3.12339 3.01536 -4.66692 
1415 2 -3.02491 2.72674 -3.82196 
1015 1 -2.02805 2.0491 -4.12031 
1175 2 -1.95027 2.9994 -3.54122 
982 1 -1.18636 2.013 -3.67161 
1668 2 -0.869528 3.41964 -3.68905 
552 1 -0.701125 2.79105 -4.73468 
593 1 -0.352188 2.51377 -3.98042 
885 1 0.466716 3.07488 -4.08161 
448 1 1.20927 2.89112 -3.23788 
1967 2 1.73246 2.28106 -3.79575 
1461 2 2.30872 2.70575 -4.61586 
1158 2 2.38255 2.45675 -3.52755 
1769 2 3.16804 2.71192 -3.99708 
188 1 4.3683 2.43329 -4.68061 
2020 2 4.09515 3.14452 -3.95284 
1105 2 4.64087 3.10805 -2.88474 
7 1 5.12513 2.52148 -4.03268 
726 1 4.28636 1.94836 -3.95925 
882 1 -5.14063 3.32521 -4.40935 
1977 2 -5.38727 4.25616 -3.86816 
1278 2 -4.54656 4.45389 -3.57603 
298 1 -4.3201 3.55271 -3.82155 
204 1 -3.30171 3.91594 -4.28596 
45 1 -2.46281 4.26103 -4.32535 
111 1 -2.80427 3.81917 -3.53072 
1593 2 -0.618975 3.96566 -4.42156 
221 1 -1.76792 4.21916 -3.37078 
1378 2 -1.48328 3.50666 -4.18344 
1625 2 0.0811329 3.58193 -3.01927 
1267 2 -0.169332 3.83641 -3.81506 
2040 2 0.62966 4.36715 -4.249 
1869 2 0.870431 4.08677 -3.34245 
896 1 2.25977 3.57303 -3.94159 
1042 2 1.67871 4.5834 -3.7368 
262 1 2.68898 3.87769 -4.63557 
143 1 3.0105 3.61845 -3.48044 
370 1 3.32373 4.33945 -4.4932 
650 1 3.62177 4.14746 -3.67325 
2039 2 4.95858 3.54096 -3.75915 
1072 2 5.73163 3.89615 -3.89784 
961 1 -5.55686 5.73058 -4.54285 
14 1 -4.82218 5.63408 -3.78446 
1311 2 -4.58686 4.82024 -4.55907 
1527 2 -3.7563 4.88115 -3.91247 
825 1 -3.84496 5.83212 -3.70543 
1329 2 -1.64976 -5.81732 -4.73741 
1417 2 -2.86521 5.26657 -4.19018 
123 1 -1.60274 4.63397 -4.2041 
1551 2 -1.01734 5.85096 -3.54801 
1510 2 -1.87475 5.69981 -4.03035 
323 1 -0.790434 4.91582 -4.00373 
41 1 0.150581 5.2716 -4.2917 
17 1 0.144486 5.01654 -3.51768 
638 1 1.02907 5.53564 -3.88479 
1499 2 1.44757 4.54755 -4.44064 
487 1 1.75679 -5.89051 -4.17832 
1926 2 2.62263 4.80374 -3.98414 
1847 2 3.13148 5.44311 -4.37364 
437 1 4.4273 4.62248 -4.05262 
1854 2 3.89995 5.56569 -3.88619 
946 1 5.21245 4.86482 -3.73195 
918 1 -5.67156 5.21765 -3.76083 
835 1 5.59572 5.30217 -4.4245 
1203 2 -4.78237 -5.2251 -3.50662 
1548 2 -4.52466 -5.53554 -2.77804 
153 1 5.8409 -4.91906 -2.251 
2000 2 -3.22868 -4.64659 -3.11284 
1534 2 -3.9563 -5.11616 -3.34661 
1285 2 -3.70937 -5.19284 -2.53865 
1046 2 -2.83597 -5.03663 -2.14685 
1394 2 -2.01717 -4.70766 -1.83335 
974 1 -2.63659 -5.9352 -2.50028 
229 1 -2.24413 -5.55136 -3.33505 
459 1 -1.80388 -5.67854 -2.48242 
260 1 -0.540356 -5.05874 -2.8564 
934 1 0.5256 -4.68976 -2.89544 
1915 2 1.96496 -5.14443 -3.10454 
1957 2 1.16331 -5.54394 -2.98745 
1749 2 1.13135 -5.73873 -2.09134 
455 1 1.08243 -4.62422 -2.1604 
2017 2 2.66733 -4.65763 -3.39302 
1530 2 1.83309 -5.51281 -2.29537 
1765 2 2.69864 -4.91423 -2.69778 
131 1 3.58898 -5.54027 -3.24256 
19 1 3.85157 -5.7815 -2.34837 
878 1 4.59884 -5.26831 -2.58052 
798 1 5.31173 -4.98005 -2.99192 
955 1 5.13048 -5.37744 -1.94953 
1318 2 5.64091 5.90613 -3.19804 
1319 2 -5.81786 -3.61797 -2.48876 
504 1 -4.68087 -4.39462 -2.65119 
524 1 -5.46688 -4.46735 -3.01772 
75 1 -4.33745 -3.90284 -3.35061 
71 1 -3.45579 -3.80569 -2.65283 
402 1 -2.79529 -3.45584 -3.28826 
634 1 -2.76599 -3.70314 -2.15256 
1425 2 -2.53473 -4.46377 -2.74265 
150 1 -2.15325 -3.31788 -2.63653 
1602 2 -1.7738 -4.41074 -2.5613 
388 1 -1.37641 -3.14642 -2.18862 
1881 2 -0.91989 -4.02387 -2.47819 
1896 2 -0.00516784 -3.65652 -2.7294 
1748 2 -0.187589 -3.96529 -1.9784 
249 1 1.19213 -4.22658 -2.97803 
1019 1 2.23722 -3.72325 -3.20667 
954 1 1.87268 -4.30598 -2.49729 
1658 2 0.730294 -3.38812 -2.44308 
1001 1 2.80892 -3.28829 -3.77679 
245 1 2.72079 -3.73098 -2.38297 
661 1 3.27145 -3.22181 -2.96422 
1592 2 3.41086 -4.27748 -3.14537 
981 1 3.94091 -3.31728 -2.21728 
1232 2 3.57211 -4.63699 -2.41374 
1737 2 4.27575 -4.19831 -2.66531 
1750 2 5.23916 -3.98022 -2.30814 
2007 2 -4.66375 -2.98014 -2.72329 
532 1 -5.74975 -2.20412 -2.89849 
548 1 -4.79602 -2.14934 -2.3715 
1545 2 -4.12675 -2.40874 -3.35371 
1442 2 -3.61241 -2.652 -2.49844 
1911 2 -2.99721 -2.2938 -3.07663 
1867 2 -2.24138 -2.0406 -3.03371 
1537 2 -2.66499 -2.54373 -2.19478 
875 1 -1.26775 -2.75614 -3.15578 
998 1 -0.461525 -2.80072 -2.45738 
313 1 -0.408319 -2.60056 -3.3091 
844 1 0.278906 -2.24565 -3.16226 
986 1 0.331228 -2.48298 -2.22316 
106 1 1.11703 -2.25369 -1.63187 
1457 2 1.79714 -2.80775 -2.89125 
1973 2 1.46825 -3.30083 -2.10122 
1787 2 2.79924 -2.44166 -2.63461 
1878 2 2.28589 -2.85729 -2.19992 
754 1 4.37515 -2.92715 -2.8387 
1645 2 3.54413 -2.44287 -2.04148 
550 1 5.07078 -2.63948 -2.67645 
311 1 5.8791 -2.58287 -2.15851 
321 1 4.94003 -3.04144 -2.01745 
2035 2 -5.40035 -0.993157 -2.3434 
1775 2 -5.50225 -0.861038 -3.17016 
1237 2 5.7122 -1.42874 -2.24342 
1350 2 -4.39577 -0.486369 -2.62162 
344 1 -4.12477 -1.59475 -2.85649 
636 1 -4.01611 -1.89953 -1.9669 
291 1 -3.19045 -1.38139 -2.64302 
717 1 -2.56746 -0.927589 -3.02164 
37 1 -2.46887 -1.3334 -2.13868 
1456 2 -1.39342 -1.91205 -2.55552 
1345 2 -0.683523 -1.59456 -2.70047 
630 1 -0.566372 -0.465197 -2.42958 
1673 2 0.0892944 -1.31797 -2.80573 
1635 2 0.114944 -1.52637 -1.83072 
1804 2 0.989414 -0.964777 -2.24928 
597 1 1.28118 -1.99625 -2.55416 
2046 2 1.67098 -0.628356 -2.52766 
705 1 2.05232 -1.55421 -3.0009 
640 1 2.8743 -1.47005 -2.49788 
1738 2 3.65356 -2.0549 -3.07075 
42 1 3.4767 -1.0757 -3.11607 
1641 2 4.23437 -2.00202 -2.35961 
116 1 3.73832 -1.11411 -2.30093 
297 1 4.48336 -0.569027 -2.64778 
1492 2 5.02519 -1.80349 -1.94438 
1148 2 4.84825 -1.54256 -2.84509 
1286 2 5.55945 -1.36608 -3.17707 
708 1 -4.79813 0.52178 -3.09115 
278 1 -5.75313 0.214198 -2.83211 
958 1 -5.20299 0.200493 -2.09832 
1184 2 -3.63443 -0.242727 -2.96756 
1206 2 -3.52169 -0.448004 -2.22479 
489 1 -4.37302 0.546883 -2.18305 
1830 2 -2.38907 0.326111 -3.40763 
1025 2 -2.79999 -0.0173479 -2.79932 
1432 2 -2.28312 -0.0296267 -1.95781 
499 1 -1.91731 -0.832874 -2.5173 
615 1 -1.38267 -0.493844 -3.0985 
1643 2 -1.79007 0.396587 -2.55557 
1834 2 -0.726045 0.531146 -2.03692 
886 1 0.217748 -0.16416 -2.21899 
1021 1 0.309632 0.218104 -3.03929 
776 1 -0.58233 -0.0439466 -3.20438 
749 1 0.991896 0.177758 -2.16409 
90 1 1.21882 0.491802 -2.92675 
783 1 2.00195 0.291871 -1.96346 
1963 2 2.33475 -0.144159 -3.07961 
1832 2 2.55096 -0.527037 -2.28347 
1505 2 3.04392 0.195685 -3.21747 
1858 2 3.2417 -0.0844491 -2.46818 
1059 2 3.88992 0.62157 -3.39769 
1220 2 3.94604 0.398228 -2.5359 
912 1 5.36868 -0.27762 -2.71061 
1468 2 4.93069 0.671277 -2.38797 
1361 2 -5.3678 1.41945 -2.48448 
1654 2 5.80313 0.926337 -2.03615 
1803 2 -4.53017 1.6045 -2.33693 
1282 2 -4.62467 1.77538 -3.18114 
299 1 -4.11274 0.803138 -2.95252 
686 1 -3.29513 0.948884 -2.48023 
1839 2 -3.80411 1.7563 -2.41116 
903 1 -1.97302 1.64432 -3.27357 
613 1 -2.79047 1.3758 -3.21002 
494 1 -2.44945 1.13049 -2.46965 
240 1 -1.65936 1.4178 -2.30358 
1550 2 -1.03019 0.744627 -2.93713 
1683 2 -0.24736 0.950578 -2.52677 
1187 2 0.606786 1.20082 -1.88338 
1884 2 0.777397 1.84875 -3.71206 
1050 2 0.684562 1.38651 -2.81019 
1642 2 1.58468 1.75247 -3.01237 
408 1 1.9654 0.737774 -2.68597 
621 1 2.9892 0.933609 -2.25542 
194 1 3.81103 1.29853 -1.98509 
760 1 3.5927 1.46544 -2.95261 
232 1 4.57874 1.64331 -2.10542 
574 1 4.40698 1.77398 -3.07727 
2030 2 5.67709 1.17625 -2.87342 
944 1 5.52131 2.0372 -2.48155 
811 1 -5.5653 2.32756 -2.16242 
171 1 -4.90601 2.70365 -2.66636 
879 1 -4.16554 3.13391 -3.03799 
460 1 -3.77576 3.06937 -2.29316 
446 1 -4.46994 2.59388 -2.00084 
1728 2 -3.43664 1.64876 -1.55912 
2021 2 -2.68022 2.04881 -2.18198 
1485 2 -3.23799 2.18952 -2.787 
719 1 -1.08317 1.75345 -2.74019 
1247 2 -2.46715 2.5435 -2.87835 
1304 2 -1.41962 2.93555 -2.91958 
301 1 -0.392456 2.27478 -3.03866 
208 1 -0.362537 1.94284 -2.26034 
561 1 0.428634 2.6351 -3.14576 
478 1 0.489551 2.30988 -2.38821 
937 1 1.4184 2.70961 -2.35168 
1825 2 2.17569 2.12412 -2.68831 
775 1 2.20515 3.02697 -2.21064 
1065 2 3.04898 2.48039 -2.97263 
256 1 3.15006 3.25096 -1.88811 
1686 2 3.91063 2.70161 -3.17617 
1554 2 4.29754 2.56094 -2.36639 
1134 2 3.43336 2.21382 -2.13421 
702 1 5.15448 2.2677 -3.26875 
1786 2 5.1544 2.95963 -2.15509 
1636 2 5.91693 3.42835 -2.14341 
1662 2 -5.59282 3.8798 -3.06922 
1335 2 -4.77136 4.0259 -2.75982 
1333 2 -5.14548 3.56188 -2.14606 
1048 2 -3.73213 4.40885 -2.97505 
568 1 -3.56033 3.56392 -3.49396 
1971 2 -4.13327 4.082 -2.28145 
1419 2 -3.0455 4.38787 -2.29108 
751 1 -3.1402 3.3632 -2.66745 
772 1 -2.34321 3.72106 -2.8192 
26 1 -1.81464 3.559 -2.08012 
418 1 -1.37856 4.01631 -2.65922 
733 1 -0.554828 4.60467 -3.18865 
1183 2 -0.668401 3.20718 -2.79291 
1071 2 0.0178536 3.2606 -1.98593 
627 1 -0.576013 4.26072 -2.33486 
612 1 0.257123 4.62492 -2.66013 
564 1 0.77183 4.57729 -1.90195 
1997 2 0.984027 3.75985 -2.44656 
1268 2 1.68523 4.17347 -2.82322 
906 1 1.96575 3.21143 -3.05255 
34 1 2.85541 3.41031 -2.68454 
1913 2 2.47504 4.13382 -2.0079 
641 1 3.76733 3.69467 -2.79086 
690 1 4.36257 4.15061 -3.06419 
183 1 3.81155 3.62762 -1.9386 
582 1 5.10191 4.48795 -2.88492 
1670 2 5.47343 3.45524 -2.94459 
2016 2 -5.36878 -5.66229 -2.81571 
742 1 -5.58008 4.71087 -2.46824 
453 1 -5.09035 5.13783 -3.04317 
13 1 -4.84733 4.88315 -2.06096 
662 1 -4.35137 5.24448 -2.89405 
1008 1 -3.48009 5.66673 -2.86674 
1413 2 -2.87794 4.79728 -3.28252 
1127 2 -2.38471 4.82839 -2.43451 
1575 2 -2.07666 5.18737 -3.23782 
1353 2 -1.39406 5.16662 -2.82936 
1191 2 -1.57713 5.03974 -2.12375 
1818 2 -0.122934 5.92723 -3.1748 
1038 2 -0.654617 5.54211 -2.6019 
1928 2 0.422492 5.7885 -2.56282 
165 1 0.924497 5.09732 -3.08224 
736 1 1.71554 5.53412 -3.37439 
1543 2 0.534601 5.65562 -1.73841 
498 1 1.53477 5.17209 -2.33723 
516 1 3.02692 5.82819 -2.83669 
1428 2 2.39592 4.50449 -3.12164 
2015 2 3.35889 4.58788 -2.46052 
871 1 2.44057 5.81824 -3.57223 
361 1 2.2139 5.47424 -2.66211 
1161 2 3.44576 5.08667 -3.39186 
1405 2 4.55854 5.75099 -3.50108 
1234 2 4.09904 5.08571 -2.67863 
443 1 5.79577 4.7746 -3.13858 
1612 2 5.75434 5.73823 -2.34861 
1362 2 4.93425 5.46411 -2.73062 
269 1 -5.17217 -4.74904 -2.08711 
724 1 -5.90619 -5.30126 -1.2917 
991 1 -4.83144 -5.05922 -1.02189 
1047 2 -4.75602 -5.78384 -1.86891 
1477 2 -3.96249 -5.717 -1.87809 
890 1 -4.07576 -4.80718 -1.31832 
1079 2 -3.12107 -5.50555 -1.47964 
1613 2 -2.172 -5.18345 -1.22902 
672 1 -0.965281 -5.47571 -2.1163 
1535 2 -1.36229 -4.87912 -1.02033 
305 1 0.189328 -5.01262 -2.10004 
203 1 -0.312646 -5.46648 -1.60306 
317 1 0.283405 -5.44182 -1.13956 
295 1 0.934212 -5.0158 -1.42466 
286 1 1.1006 -5.32089 -0.622056 
1611 2 2.44686 -5.67021 -1.69827 
1859 2 3.07964 -5.09871 -1.67985 
1521 2 3.77738 -5.1101 -0.846494 
847 1 4.32771 -5.82908 -1.6002 
586 1 5.15835 -5.59969 -1.06552 
1844 2 4.83609 -4.67599 -0.895661 
1851 2 -5.04975 -3.55942 -2.10172 
1655 2 -5.24073 -4.09473 -1.2611 
251 1 -4.07006 -4.30833 -1.98569 
21 1 -3.4589 -4.77235 -0.879697 
1119 2 -4.35153 -3.86143 -1.01071 
1993 2 -4.17536 -3.24153 -1.92066 
753 1 -3.29019 -4.36791 -1.46919 
366 1 -2.36865 -3.93219 -1.25791 
816 1 -1.95727 -3.55198 -1.78716 
1991 2 -0.950959 -4.53817 -1.72474 
398 1 -1.30443 -3.63813 -1.14207 
246 1 -0.691322 -3.15115 -1.54425 
1812 2 -0.244909 -4.3818 -1.21965 
1280 2 -0.401285 -4.81134 -0.509922 
1922 2 0.563221 -4.31922 -0.896067 
304 1 1.89678 -4.60683 -1.6061 
1942 2 0.566537 -3.75962 -1.69983 
1381 2 1.1555 -4.139 -0.433609 
1066 2 1.25067 -3.79388 -1.21958 
100 1 2.70718 -4.40122 -0.754667 
257 1 2.74177 -4.19941 -1.61235 
693 1 1.8294 -4.84767 -0.868227 
1637 2 3.02325 -3.16769 -0.577395 
352 1 4.37777 -3.30707 -1.37826 
1487 2 3.86817 -4.73373 -1.71816 
328 1 3.39494 -3.72578 -1.6086 
602 1 3.69761 -4.02462 -0.935928 
1871 2 5.81508 -4.02506 -1.67695 
1836 2 5.80458 -4.35759 -0.960232 
1129 2 4.72622 -4.43079 -1.67505 
522 1 4.82613 -3.60177 -0.772397 
471 1 -5.77918 -3.2184 -0.860937 
140 1 -5.39662 -2.6408 -1.60073 
767 1 -4.93987 -3.05273 -0.698315 
99 1 -4.62928 -2.50799 -1.25492 
1069 2 -3.52137 -3.51803 -0.8727 
167 1 -3.60397 -2.1982 -1.07434 
1077 2 -3.29299 -3.03867 -1.57128 
1908 2 -2.33175 -2.74754 -1.27135 
963 1 -2.61198 -1.75177 -1.08657 
1781 2 -1.89108 -2.31798 -1.87026 
1574 2 -0.856794 -1.9134 -1.72245 
1052 2 -1.30389 -2.5007 -1.01135 
573 1 0.253269 -2.80653 -1.36387 
1177 2 -0.427232 -1.93228 -1.01155 
11 1 1.14629 -2.7405 -0.884846 
377 1 1.76108 -2.33925 -1.25228 
1708 2 2.09397 -3.31343 -1.32882 
1167 2 2.93473 -2.88877 -1.43334 
1156 2 4.36957 -2.29918 -1.42153 
1262 2 3.73485 -2.69003 -0.971115 
968 1 5.39598 -3.0529 -1.4218 
1445 2 5.1523 -2.128 -1.03913 
1279 2 -5.17507 -1.37055 -1.54736 
1174 2 -4.52083 -1.24536 -1.10325 
1978 2 -4.34381 -0.786418 -1.87656 
1310 2 -3.63402 -0.847948 -1.28711 
1826 2 -2.81557 -0.734607 -0.937749 
682 1 -1.92302 -1.35495 -1.40248 
177 1 -3.23427 -1.72333 -1.65663 
234 1 -1.40704 -0.853654 -1.86901 
252 1 -0.929182 -1.03894 -1.17665 
271 1 -1.72159 -1.5424 -0.659843 
121 1 -0.233304 -0.554546 -1.63726 
502 1 0.512709 -0.658131 -0.675621 
1517 2 1.16331 -1.25758 -1.35783 
1568 2 1.89555 -0.911515 -1.63479 
1682 2 1.54897 -1.43126 -0.605511 
1086 2 0.42449 -1.72178 -0.88841 
691 1 1.97108 -1.84653 -1.98885 
867 1 2.55644 -1.87003 -1.27638 
846 1 3.22643 -1.49738 -1.76839 
626 1 3.65475 -1.43453 -0.885671 
962 1 4.25912 -1.20196 -1.37687 
279 1 4.71871 -1.33666 -0.574726 
1940 2 5.92919 -1.73738 -1.34533 
518 1 5.02876 -0.719884 -1.82187 
198 1 5.36969 -0.869209 -1.02407 
654 1 -4.90378 -0.16571 -1.3271 
737 1 -5.56795 -0.461203 -1.01363 
692 1 -4.46949 -0.387617 -0.52209 
472 1 -3.46913 0.495723 -1.77462 
969 1 -4.08344 0.16605 -1.30352 
1337 2 -2.90599 -0.490554 -1.68392 
259 1 -3.07193 0.485727 -0.992096 
1893 2 -2.19107 -0.222601 -1.11057 
910 1 -2.13984 0.649102 -0.532634 
1972 2 -1.49272 0.183546 -1.85276 
1761 2 -1.48335 -0.242264 -0.656326 
1436 2 -0.0625901 0.602799 -1.53833 
1589 2 -0.858695 0.113332 -1.10379 
625 1 0.692704 -0.2587 -1.47223 
243 1 1.56362 0.0849208 -1.23518 
1659 2 2.71682 -0.654521 -1.44889 
601 1 2.54314 0.30142 -0.936075 
1819 2 3.5311 -0.338964 -1.62458 
1360 2 4.2826 0.207615 -1.69711 
1508 2 3.99008 -0.298494 -0.889015 
32 1 5.847 -0.368381 -1.92374 
1045 2 5.16843 0.5035 -1.49414 
1229 2 5.57213 0.242326 -0.715904 
1564 2 4.79075 -0.0934556 -0.762563 
1776 2 -5.68549 0.847142 -1.32953 
1000 1 -5.70429 1.75485 -0.86876 
1622 2 -4.98221 1.1687 -1.68254 
1679 2 -4.18376 1.31785 -1.41255 
1720 2 -3.23095 1.45166 -0.611998 
1724 2 -4.07456 1.02861 -0.609771 
1727 2 -2.53402 1.80143 -1.26727 
189 1 -2.66289 0.91954 -1.66601 
1520 2 -2.35715 1.7168 -0.490115 
823 1 -0.946314 1.53853 -1.65811 
115 1 -1.81711 1.07009 -1.4914 
44 1 -1.2964 1.22625 -0.803452 
660 1 0.189161 2.0495 -1.57289 
2043 2 0.633454 0.884103 -1.06893 
614 1 -0.226752 1.65573 -1.08151 
1386 2 1.30458 1.07624 -1.31329 
1681 2 1.38079 1.52167 -2.13569 
50 1 3.39677 0.737545 -1.16135 
1712 2 2.16402 1.3076 -1.2014 
874 1 2.79148 0.474191 -1.68906 
1866 2 2.89877 1.5708 -0.820091 
1838 2 3.89741 2.01903 -0.709302 
464 1 4.22204 1.11591 -1.16076 
837 1 4.79954 0.931539 -0.447722 
1011 1 4.93576 1.69195 -1.43859 
761 1 5.67311 1.83722 -1.62797 
351 1 -5.0291 2.21485 -1.44129 
1757 2 -5.06014 3.2501 -1.17451 
1627 2 -4.82238 2.96442 -0.192719 
312 1 -4.82176 1.92218 -0.709469 
966 1 -3.22869 2.83501 -1.67033 
739 1 -4.02284 2.45498 -1.33715 
1348 2 -4.20741 3.30763 -0.734093 
322 1 -2.53139 3.22413 -1.90808 
381 1 -2.07944 3.19165 -1.23969 
696 1 -2.76825 2.74343 -0.804548 
2047 2 -1.80973 2.22194 -1.23187 
1689 2 -1.68056 2.52539 -2.23639 
1981 2 -1.02928 2.51395 -1.42074 
1983 2 -0.874043 2.96925 -2.03734 
1616 2 -0.127903 2.88635 -1.26437 
747 1 0.734108 2.01022 -0.93241 
828 1 1.20978 2.37294 -1.59084 
124 1 1.91508 2.48821 -1.23809 
1080 2 0.630526 3.20574 -0.807672 
1994 2 2.45472 1.81561 -1.88374 
843 1 2.83244 2.92636 -1.10763 
1522 2 3.39163 2.13412 -1.34938 
945 1 3.86567 3.24938 -0.863032 
1276 2 4.09414 2.53187 -1.56026 
786 1 4.5265 3.60129 -1.48893 
1330 2 5.1476 2.75902 -1.41936 
1439 2 -5.76571 2.96798 -1.36532 
1026 2 5.564 2.68368 -0.702851 
355 1 -5.39565 4.45171 -1.56065 
952 1 -5.84007 3.93807 -1.02868 
1056 2 -4.42926 3.59241 -1.60178 
1287 2 -3.34669 3.71681 -0.798513 
506 1 -4.56614 4.6948 -1.21441 
1992 2 -3.38301 3.93556 -1.5556 
2033 2 -2.61866 4.31491 -1.59051 
520 1 -1.36802 3.32446 -0.653911 
1339 2 -1.83709 4.49674 -1.2906 
224 1 -1.24103 3.67886 -1.55865 
985 1 -0.0266323 4.18202 -1.62359 
1023 1 -0.543706 3.72869 -0.896261 
438 1 0.626184 4.3463 -1.07514 
1406 2 0.857424 3.29494 -1.70658 
1974 2 1.65914 3.86744 -1.87886 
1610 2 1.57506 3.56146 -1.06427 