ITEM: TIMESTEP
8400
ITEM: NUMBER OF ATOMS
2048
ITEM: BOX BOUNDS pp pp pp
-5.9359890663905830e+00 5.9359890663905830e+00
-5.9359890663905830e+00 5.9359890663905830e+00
-5.9359890663905830e+00 5.9359890663905830e+00
ITEM: ATOMS id type x y z 
1192 2 -5.1517 -4.64279 -5.28662 
825 1 -5.31078 5.76574 -4.64861 
1272 2 -5.76414 -5.17152 -4.87417 
412 1 -4.8382 -5.62503 -5.38464 
554 1 -3.93756 -5.22652 -5.59054 
14 1 -4.29888 -5.62134 -4.81785 
3 1 -3.10123 -4.90972 -5.90181 
1138 2 -2.18451 -5.75101 -5.62683 
91 1 -2.542 -4.805 -5.3263 
247 1 -2.16232 -4.92418 -4.27462 
333 1 -3.21508 -5.30549 -4.79381 
1291 2 -1.57924 -5.57176 -4.98282 
1429 2 -0.641531 -5.37136 -4.85225 
1035 2 -1.15525 -5.33185 -5.70617 
1746 2 0.126573 -4.75838 -5.28313 
1709 2 0.867708 -4.74134 -5.10618 
135 1 1.11733 -5.70011 -5.40808 
857 1 2.0194 -5.54354 -5.12102 
434 1 2.27569 -4.97168 -5.84583 
1823 2 2.92111 5.79666 -5.63676 
64 1 2.92103 -5.26102 -5.02594 
481 1 3.28406 -4.686 -5.71572 
1677 2 4.65353 -5.34542 -5.73059 
1846 2 3.92544 -5.81118 -5.45126 
809 1 3.8508 -4.92364 -4.8601 
1799 2 5.68826 -5.00149 -5.54905 
1875 2 5.05801 -5.35858 -4.99572 
1849 2 -5.64781 -4.60798 5.85016 
273 1 -5.61993 -3.62612 -5.54366 
1633 2 -4.85872 -4.29645 5.78702 
1548 2 -4.07379 -4.26403 -5.27325 
991 1 -4.67848 -3.37062 -4.93592 
1663 2 -3.35643 -3.93695 -5.50417 
1046 2 -2.48961 -3.36024 -5.93564 
1472 2 -2.45182 -3.75712 -5.09064 
902 1 -1.14561 -4.50485 -4.26066 
855 1 -1.82328 -4.50668 -4.89068 
924 1 0.0671634 -3.46651 -5.39152 
467 1 -0.581963 -4.04967 -4.99587 
227 1 -1.36104 -4.27813 -5.52679 
1790 2 1.23125 -4.21121 -5.86668 
819 1 0.938121 -3.34991 -5.15272 
1737 2 1.77617 -4.31807 -5.13321 
1705 2 2.17283 -3.48235 5.37711 
1466 2 2.21401 -3.83977 -5.80177 
1483 2 2.93648 -3.41879 5.87139 
1836 2 2.82894 -3.81184 -5.2107 
429 1 4.32701 -4.3459 -5.28118 
1995 2 3.50941 -4.03659 -4.47459 
1929 2 4.35651 -3.58378 -4.49089 
19 1 4.99216 -4.33876 -4.74238 
817 1 5.01049 -3.92525 -5.88138 
75 1 5.55333 -3.89965 -5.17309 
1937 2 -5.29453 -2.44826 -5.41047 
1657 2 -5.61966 -2.80984 -4.65437 
269 1 -4.03668 -2.82559 -5.96062 
1465 2 -4.43866 -2.13839 -5.17123 
218 1 -3.56883 -3.10211 -5.10955 
353 1 -3.39102 -2.41492 5.61415 
391 1 -2.3777 -2.31829 -5.51579 
402 1 -3.005 -2.61042 -5.36006 
151 1 -2.05445 -2.52512 -4.62922 
1231 2 -1.72883 -3.4392 -4.74842 
1763 2 0.71299 -2.50798 -4.68462 
1255 2 -0.148168 -2.61525 -5.0569 
1909 2 0.576949 -2.2108 -5.52117 
169 1 1.83262 -3.05171 -5.40958 
694 1 2.15093 -3.16482 -4.57075 
475 1 2.51031 -2.51077 -5.6197 
1129 2 3.63272 -3.39885 -5.29542 
939 1 2.91662 -2.71863 -4.91258 
904 1 4.0535 -2.18705 -5.06268 
136 1 3.44328 -2.19238 -5.68495 
1070 2 5.74201 -2.65947 -5.37386 
1475 2 4.53603 -3.03727 -5.52907 
214 1 -4.54017 -0.940946 -5.11157 
543 1 -5.2617 -1.49259 -4.85817 
730 1 -5.27911 -1.12962 -5.75616 
55 1 -3.75037 -0.568651 -5.4527 
1341 2 -3.71028 -1.58291 -5.71797 
505 1 -3.50832 -0.728276 -4.53905 
1745 2 -3.63239 -1.90413 -4.93329 
1733 2 -3.05681 -1.42796 -5.0649 
1809 2 -2.30751 -1.17797 -5.32424 
1569 2 -1.69671 -0.956088 -4.84891 
387 1 -1.44423 -2.0018 -5.09974 
595 1 -0.532688 -1.64938 -4.71924 
35 1 0.306377 -1.4115 -4.7819 
8 1 1.06044 -1.2316 -4.30563 
1555 2 1.43503 -2.18189 -4.92353 
1964 2 1.97301 -1.51777 -5.49879 
1190 2 2.3245 -1.70812 -4.72639 
1202 2 2.44873 -1.08301 5.4919 
1775 2 2.9939 -1.18822 -5.44626 
1363 2 3.91367 -0.775932 -5.58652 
485 1 4.21828 -1.71932 5.94952 
25 1 5.09621 -1.73013 -5.17174 
308 1 4.98795 -1.21409 5.70392 
771 1 5.72859 -1.46652 -5.49778 
2036 2 4.8007 -0.697191 -5.10806 
1830 2 -5.29811 0.0207357 -5.50562 
2028 2 -4.26684 0.262207 -5.04482 
1343 2 -3.75706 0.678501 -5.70608 
749 1 -1.92499 0.308648 -5.2813 
701 1 -2.89937 -0.223962 -5.21268 
374 1 -2.49749 0.253646 5.77054 
859 1 -3.24225 -0.164072 5.76798 
234 1 -1.13225 0.380865 -4.70353 
212 1 -1.08995 0.660664 -5.47798 
1867 2 -0.897932 -0.643068 -4.72174 
1414 2 -1.72911 -0.594202 -5.65191 
1478 2 0.029721 -0.459409 -4.9021 
1573 2 -0.0174582 0.0379819 -5.59696 
1572 2 -0.815133 -0.454805 -5.48301 
578 1 0.904556 -0.810878 -5.3297 
1963 2 1.05124 0.436424 -5.46245 
1223 2 0.759084 0.0352396 -4.77903 
31 1 1.79177 -0.443109 -5.54395 
1180 2 1.72775 0.465204 -4.9705 
560 1 2.60265 -0.461659 -4.80083 
866 1 3.52362 -0.0636997 -5.0244 
700 1 3.97245 0.518221 -5.78127 
116 1 4.39243 0.19639 -4.8623 
1224 2 4.92701 -0.265348 5.93928 
1623 2 5.64521 -0.442953 -5.37076 
469 1 5.39428 0.374516 -4.80103 
915 1 -5.34539 0.828599 -4.55702 
420 1 -5.00416 1.19138 -5.53444 
697 1 -4.5919 1.29269 -4.59317 
1643 2 -3.21099 0.705192 -4.97468 
338 1 -4.22346 1.54611 -5.54093 
980 1 -3.7756 1.67882 -4.93448 
1443 2 -2.72501 1.16384 -5.76425 
1576 2 -1.977 1.38307 -5.32795 
1050 2 -2.42288 0.99519 -4.56899 
827 1 -0.254599 0.996089 -5.65096 
1063 2 -1.11842 1.73022 -5.35934 
842 1 0.292186 1.24723 -5.09502 
1639 2 -0.582553 2.39684 -5.79551 
156 1 0.975387 1.55823 -5.52536 
408 1 1.84118 1.96702 -5.44713 
895 1 2.66203 2.17452 -5.34783 
80 1 0.72541 1.00415 -4.15655 
1785 2 2.50108 0.765588 -5.26838 
1852 2 1.8569 0.970182 -5.76354 
1882 2 3.13861 1.28383 -5.49382 
1226 2 4.16006 1.25791 -4.8103 
1910 2 3.34959 0.859493 -4.77755 
1463 2 4.11701 1.58873 -5.70933 
302 1 4.84352 0.751368 -5.52272 
1204 2 4.97872 1.69692 -5.4045 
1431 2 -5.39775 2.22188 -5.13017 
1716 2 -4.8295 2.58102 -5.46966 
1654 2 -4.31859 2.53956 -4.76201 
1403 2 -5.42207 2.59211 5.57183 
752 1 -3.41609 2.01708 -5.67766 
1620 2 -3.77699 3.02609 -5.40254 
820 1 -2.69321 2.09922 -4.87796 
1015 1 -1.94366 2.59038 -5.234 
1877 2 -3.18007 3.01126 -4.77903 
264 1 -2.59489 2.48267 -5.91225 
719 1 -1.40699 2.41996 -4.52572 
494 1 -1.19104 2.96615 -5.2771 
28 1 -1.79335 2.91784 5.72476 
852 1 -0.548442 3.10642 -4.81917 
1683 2 0.559134 2.52329 -4.93337 
1884 2 0.404109 2.61035 -5.76741 
1506 2 1.19024 2.92586 -5.50239 
621 1 3.4702 2.47566 -5.44682 
1214 2 2.32603 2.98893 -4.67229 
1769 2 3.05728 3.28269 -4.94569 
396 1 4.37272 2.56577 -5.22741 
445 1 4.75639 3.39026 5.38169 
1396 2 5.71821 2.20228 -5.69437 
869 1 4.89302 3.12214 -5.5739 
188 1 -5.65683 3.01457 -4.40785 
923 1 -4.82103 3.36041 -4.49947 
607 1 -4.40501 4.13256 5.82062 
1349 2 -5.68401 4.34597 -4.96051 
644 1 -5.01723 3.82173 -5.55331 
797 1 -4.31483 3.87358 -5.07015 
45 1 -3.72351 4.347 -5.58983 
1142 2 -2.71096 3.42691 -5.36487 
250 1 -2.96243 4.48604 -5.06483 
1482 2 -3.23294 3.54669 5.87044 
1869 2 -2.06349 3.77523 -5.5866 
1824 2 -1.48093 3.90863 -4.86582 
1336 2 -0.58287 4.35268 -4.91594 
1926 2 0.187402 4.50202 -4.77725 
710 1 -0.409239 3.47912 -5.7222 
561 1 0.210207 3.59932 -5.28653 
72 1 0.443828 3.85298 5.78911 
709 1 1.95859 4.19654 -5.21751 
310 1 1.03159 3.8108 -5.13715 
815 1 1.36106 4.08488 5.95043 
716 1 2.68972 4.16234 -4.69911 
1130 2 2.96947 3.43956 -5.78984 
1274 2 3.79255 3.79242 -5.74727 
1073 2 4.20231 3.74884 -5.08431 
204 1 -5.608 3.4372 -5.14334 
1618 2 4.63163 4.18557 -5.71259 
1640 2 5.36777 4.12818 -5.27408 
407 1 -5.78517 5.75452 -5.42083 
1670 2 -5.82236 4.7274 -5.79178 
1048 2 -4.91627 4.83894 -5.06201 
1413 2 -4.05472 5.31572 -5.2568 
1353 2 -3.35817 5.69226 -5.74702 
1757 2 -2.74361 5.69938 -5.02811 
577 1 -2.31015 4.77184 -5.57151 
17 1 -1.49431 5.30711 -5.54827 
123 1 -0.652105 5.36961 -4.84362 
1354 2 0.303112 4.94223 -5.89581 
495 1 0.0792883 5.75782 -5.2849 
822 1 0.756727 -5.94222 -4.63579 
1039 2 0.669659 4.94391 -5.22748 
1193 2 2.07577 5.19413 -5.39214 
1033 2 1.26796 5.23177 -5.71103 
1847 2 2.73818 5.34885 -4.87881 
501 1 3.27123 4.63404 -5.38176 
653 1 3.76227 4.55979 -4.70855 
48 1 4.12839 5.07344 -5.55008 
662 1 4.7447 4.89504 -4.75835 
699 1 5.63921 5.30019 -4.82285 
486 1 4.9996 5.52894 -5.54209 
1418 2 -5.16064 -4.90729 -4.37796 
496 1 5.69803 -4.71403 -3.40595 
1358 2 -5.17613 -5.52074 -3.73688 
1079 2 -4.41321 -4.9386 -3.69786 
1008 1 -3.7104 -5.75306 -4.07316 
1807 2 -3.73018 -4.60736 -3.69637 
473 1 -4.64377 5.63152 -4.09571 
508 1 -3.18426 -5.94825 -3.26579 
805 1 -2.85316 -5.31385 -3.9854 
453 1 -1.61029 -4.92159 -3.56384 
1334 2 -1.0944 -5.79796 -4.04402 
934 1 -0.771781 -4.65886 -3.41772 
1029 2 -0.315991 -5.66003 -3.77476 
1260 2 0.119402 -5.31136 -4.43984 
1592 2 0.471574 -5.53648 -3.19682 
1486 2 0.828352 -5.22613 -3.87498 
673 1 1.62611 -5.82843 -4.42575 
1678 2 1.44995 -4.81766 -4.45604 
648 1 2.7135 -5.47393 -4.20522 
723 1 3.64042 -5.48524 -4.01123 
131 1 4.33553 -4.97513 -4.23434 
1013 1 4.21121 -5.48268 -3.45986 
1244 2 4.45662 -5.95352 -4.6017 
1604 2 5.93217 -5.55242 -4.05272 
1704 2 5.14262 -5.74004 -4.34545 
878 1 -5.4421 -3.82077 -4.55075 
246 1 -4.52279 -4.07389 -3.11317 
798 1 -5.42389 -4.32664 -3.54805 
1477 2 -4.3445 -4.51799 -4.5389 
483 1 -4.69864 -3.76383 -4.08988 
1261 2 -3.4734 -4.28971 -4.60173 
524 1 -3.90813 -3.64762 -3.43048 
1452 2 -2.86976 -4.21689 -4.06197 
1402 2 -2.94481 -4.53922 -3.30953 
1602 2 -2.09437 -3.78756 -3.98745 
2009 2 -2.27101 -4.13239 -3.26015 
1711 2 -1.26102 -3.58879 -3.78803 
326 1 -0.243754 -4.31211 -4.0614 
782 1 0.513715 -4.24408 -3.80484 
413 1 0.415225 -3.89176 -4.62411 
107 1 1.39021 -3.98321 -3.65659 
1198 2 2.57397 -4.3658 -4.51859 
1844 2 3.50866 -4.5663 -3.84397 
1082 2 2.08579 -4.77058 -3.84947 
2010 2 4.12584 -4.04477 -3.59329 
1563 2 2.96891 -4.68778 -3.28332 
1655 2 4.988 -3.70206 -3.9702 
339 1 5.85468 -4.35044 -4.28833 
847 1 5.10411 -4.76496 -3.93072 
1911 2 -4.69364 -2.37032 -4.36667 
833 1 -5.74475 -2.00264 -3.97871 
1664 2 -5.26705 -3.00811 -3.72942 
1871 2 -4.55227 -2.85392 -3.40601 
1097 2 -3.96462 -2.39124 -3.99017 
1086 2 -3.59262 -2.52237 -3.28119 
664 1 -3.8826 -3.35002 -4.24793 
236 1 -2.93227 -3.26535 -3.64549 
196 1 -2.94239 -2.97379 -4.48472 
388 1 -2.34651 -3.03038 -2.94318 
657 1 -1.95728 -2.75629 -3.75517 
573 1 -1.09482 -2.43243 -3.23641 
1379 2 -0.892088 -3.19594 -4.46258 
1370 2 -0.569763 -3.30666 -3.5121 
1006 1 -0.311176 -2.08573 -3.67575 
1581 2 -0.0723818 -2.97878 -4.25665 
1645 2 0.588206 -3.24642 -3.64316 
122 1 1.40694 -3.66517 -4.45023 
1083 2 1.87414 -2.3188 -4.21586 
1982 2 1.22584 -2.72247 -3.89554 
1401 2 1.84304 -2.91585 -3.24581 
471 1 3.112 -3.08115 -4.19194 
547 1 2.48805 -3.52164 -3.76024 
1259 2 2.79885 -1.93434 -4.17699 
277 1 3.90997 -2.65196 -4.37718 
602 1 3.65898 -3.15151 -3.40712 
999 1 4.46452 -2.84922 -3.58021 
2032 2 5.2864 -3.12964 -4.73364 
609 1 4.81597 -2.27145 -4.35836 
1201 2 5.74342 -3.23065 -3.96554 
66 1 5.36641 -2.37379 -3.60588 
717 1 -5.04723 -1.54591 -4.04788 
205 1 -4.69012 -1.78125 -3.19406 
848 1 -4.25349 -1.25042 -4.34586 
161 1 -4.06123 -1.31524 -3.34587 
767 1 -3.41223 -1.07598 -3.82312 
1271 2 -3.05842 -2.04392 -4.1327 
1908 2 -2.4647 -1.39446 -4.4083 
1635 2 -2.02349 -1.56641 -3.67207 
597 1 -1.15829 -2.23953 -4.19036 
1345 2 -1.38298 -1.11995 -4.0678 
367 1 0.718435 -2.27894 -3.16974 
11 1 0.514613 -1.77461 -4.03441 
1537 2 -0.403098 -0.818633 -4.07774 
1296 2 0.383897 -0.441787 -4.05752 
421 1 1.29147 -1.63386 -3.50677 
768 1 1.86332 -1.1012 -3.8843 
674 1 1.86432 -0.739618 -4.62614 
1030 2 3.17531 -1.65724 -4.8539 
106 1 2.69059 -0.94336 -3.98346 
2048 2 3.95586 -1.20542 -4.77954 
1167 2 3.5706 -1.7159 -3.85043 
740 1 5.69864 -1.85708 -4.59081 
1163 2 5.36114 -0.911155 -4.29253 
1110 2 4.4277 -1.28874 -4.23377 
2001 2 -5.71168 -0.608866 -4.58469 
1111 2 -5.26902 -0.620943 -3.82385 
1498 2 -5.11875 -0.124732 -4.79015 
872 1 5.85146 0.407223 -4.04184 
1184 2 -3.6823 0.217775 -4.48792 
1834 2 -3.8042 -0.0532549 -3.57221 
1436 2 -4.45202 -0.257682 -4.13858 
704 1 -2.6731 -0.318709 -4.37964 
1736 2 -3.03277 0.451402 -3.76191 
1761 2 -2.83249 0.277395 -3.07341 
37 1 -1.95831 0.157768 -4.43902 
799 1 -0.907828 0.123618 -3.8701 
789 1 -0.323618 0.56532 -4.47504 
517 1 -0.0996098 0.234166 -3.57268 
1456 2 1.05692 -0.455624 -3.40782 
1975 2 1.29397 -0.00746053 -4.14261 
1412 2 2.16043 0.104126 -4.07415 
640 1 3.46787 -0.524065 -4.27537 
1470 2 2.81864 0.460797 -4.34443 
1832 2 2.78332 -0.00280004 -3.43045 
1517 2 2.0027 -0.292796 -3.30884 
846 1 4.30781 -0.252354 -4.18234 
427 1 3.51466 -0.651335 -3.34792 
1777 2 3.51727 0.450714 -3.79441 
199 1 4.42429 -0.51399 -3.26144 
715 1 5.17062 0.029631 -3.8281 
692 1 5.75633 0.0296883 -3.16076 
278 1 -4.62836 0.720024 -3.77278 
1986 2 -5.18827 1.64136 -3.53287 
164 1 -3.36482 1.30395 -3.208 
689 1 -3.8533 1.23659 -3.92221 
489 1 -3.0894 1.62483 -4.1018 
1550 2 -2.10518 0.666137 -3.4152 
686 1 -2.34773 1.64975 -3.11317 
1054 2 -1.60743 1.29663 -4.33707 
1149 2 -1.35596 1.03651 -3.50115 
134 1 -1.58844 1.76469 -2.61732 
1386 2 -0.802965 1.58084 -4.5165 
1310 2 0.0215397 1.79272 -4.05617 
625 1 0.844255 0.646496 -3.39887 
254 1 1.22418 1.47483 -4.79752 
760 1 1.66011 1.15895 -4.15924 
1838 2 0.530659 1.68978 -3.24204 
380 1 2.11925 1.69417 -4.79719 
1011 1 2.54295 1.39381 -4.14176 
731 1 2.63479 1.22642 -3.18615 
894 1 2.9897 1.92876 -4.57364 
381 1 3.3301 1.52335 -3.71253 
2008 2 4.1244 0.969493 -4.04604 
1172 2 5.10566 1.38744 -4.54176 
1497 2 5.83162 1.87705 -4.78808 
1068 2 5.9446 1.48112 -4.12012 
1953 2 4.93709 0.993279 -3.74764 
1377 2 -5.0359 2.14756 -4.42458 
369 1 -4.64761 3.04208 -2.99226 
631 1 5.64097 2.43932 -3.82872 
1485 2 -4.48506 2.09827 -3.7462 
1728 2 -3.66335 2.57579 -4.07811 
1794 2 -3.57132 2.40203 -3.3281 
903 1 -2.20108 2.07839 -4.10226 
1625 2 -2.78358 2.92775 -3.8092 
1607 2 -1.9982 3.07452 -3.41875 
982 1 -0.77443 2.57777 -4.08951 
585 1 -1.51858 2.14349 -3.46257 
1364 2 -0.257404 2.15986 -4.94667 
843 1 0.149609 3.31246 -4.46823 
397 1 0.123879 2.81866 -3.7079 
1628 2 1.51951 2.63057 -4.64739 
2020 2 0.859746 2.06543 -4.16007 
1158 2 1.37324 1.98771 -3.58617 
885 1 0.838531 2.87941 -3.12213 
1999 2 2.11125 2.33661 -3.86498 
1522 2 3.02701 2.89286 -3.93026 
1562 2 3.7975 2.76651 -3.34244 
171 1 3.85038 2.12645 -4.39453 
1439 2 4.39053 3.17296 -3.8661 
232 1 4.18683 1.86128 -3.55595 
726 1 5.42507 2.81137 -4.93381 
702 1 4.76321 2.45363 -4.30999 
1575 2 -5.01971 4.3468 -4.19749 
676 1 -4.97977 3.02362 -3.71649 
1275 2 -5.62356 3.95648 -3.63249 
92 1 -4.16347 3.4837 -3.73876 
1957 2 -4.30961 4.43332 -3.65401 
446 1 -3.47866 3.88799 -4.42545 
340 1 -2.25022 4.42364 -4.46509 
1175 2 -2.1643 3.33278 -4.45557 
772 1 -2.75739 4.16458 -3.91074 
1268 2 -1.36777 3.42782 -4.035 
1689 2 -0.829859 4.0104 -4.10324 
612 1 -1.89566 4.4336 -3.64876 
1304 2 -0.00578735 4.17425 -3.84891 
1183 2 0.139171 3.7305 -2.95156 
1616 2 -0.674387 3.52701 -3.42678 
56 1 0.919209 3.40812 -3.98401 
896 1 1.7168 3.32169 -3.44089 
1161 2 0.958597 4.62716 -4.2656 
1372 2 0.920953 4.10434 -3.19691 
884 1 1.6129 3.67724 -4.44371 
183 1 2.5476 3.29959 -3.02026 
256 1 2.41094 3.78204 -3.87441 
2039 2 3.64592 3.16475 -4.52831 
835 1 3.39743 4.02298 -4.05299 
775 1 4.06469 3.95695 -3.43677 
1971 2 5.74603 3.94009 -4.37197 
1333 2 5.30623 3.45935 -3.62707 
1636 2 4.85099 3.61809 -4.52354 
435 1 -5.79585 5.14644 -4.16018 
918 1 5.79973 4.78512 -3.36296 
346 1 -5.17042 5.14314 -3.55315 
1038 2 -4.16432 4.71151 -4.43454 
1236 2 -3.49719 4.92644 -3.68832 
1526 2 -3.39622 5.30633 -4.58441 
1151 2 -2.02295 5.93661 -4.24111 
1329 2 -2.71513 5.29928 -3.96326 
82 1 -1.78188 5.04115 -4.83342 
568 1 -1.17457 4.94642 -4.09761 
1571 2 -1.89196 5.51883 -3.34644 
628 1 -0.496472 4.98446 -3.52837 
503 1 0.0143966 5.27177 -4.22399 
564 1 0.231097 5.09947 -3.16376 
959 1 0.932697 5.52548 -3.84395 
1668 2 1.51333 5.11139 -4.81238 
2040 2 1.67706 4.5094 -3.63425 
575 1 1.88677 5.61958 -3.52691 
1955 2 2.23867 4.98957 -4.28575 
1093 2 1.98285 4.25756 -2.91455 
1667 2 3.66938 5.56986 -4.55767 
1691 2 2.99416 5.09702 -3.85337 
1489 2 4.32764 5.48381 -3.92526 
579 1 5.31824 4.79492 -4.06988 
443 1 4.30473 4.55707 -4.05551 
1425 2 5.0816 5.7471 -3.51815 
262 1 4.86862 4.30553 -3.39535 
1394 2 -5.20876 -5.85096 -2.97706 
1197 2 -4.41135 -5.35572 -3.0372 
1822 2 -4.48611 -5.69371 -2.11348 
1047 2 -3.6066 -5.08964 -2.92434 
1404 2 -3.67727 -5.32785 -2.03049 
1783 2 -2.96737 -4.75238 -2.537 
260 1 -2.34514 -5.78911 -2.41318 
1531 2 -2.79922 -4.98643 -1.84437 
274 1 -2.25729 -5.44946 -3.17818 
337 1 -1.44147 -5.22555 -2.80629 
954 1 -1.685 -5.69491 -2.00696 
5 1 0.128893 -4.41715 -3.03004 
147 1 -0.522294 -5.02774 -2.51332 
661 1 0.552563 -4.78381 -2.2991 
1818 2 -0.125532 5.92119 -2.67403 
1742 2 1.5167 -5.27822 -3.35927 
1747 2 0.99269 -5.74751 -2.5572 
1503 2 1.75587 -5.4883 -2.33737 
1319 2 2.22194 -5.049 -2.87703 
1887 2 3.04335 -5.02685 -2.45748 
57 1 4.19202 -5.6394 -2.63399 
1194 2 4.00942 -4.81713 -1.88528 
49 1 3.44694 -5.79816 -3.17021 
666 1 4.91051 -5.0646 -3.17383 
955 1 4.91167 -5.49857 -2.25663 
284 1 -5.82899 -4.87899 -2.57433 
1400 2 -5.44338 -3.73011 -2.23388 
411 1 -5.12347 -4.64695 -2.76895 
864 1 -4.46018 -4.63811 -1.73029 
366 1 -4.10742 -4.29609 -2.43213 
599 1 -3.37798 -4.04353 -1.96624 
1106 2 -2.09304 -4.49049 -2.42672 
313 1 -3.28459 -3.68693 -2.76057 
71 1 -2.50875 -3.59129 -2.26979 
1280 2 -1.52686 -3.89554 -3.10316 
1843 2 -1.29257 -4.2552 -2.21736 
51 1 -1.75735 -3.28553 -1.90503 
1896 2 -0.417 -4.10934 -1.95866 
1878 2 -0.780035 -3.80935 -2.71445 
328 1 1.07027 -4.4453 -2.97605 
1848 2 0.122221 -3.44393 -2.84512 
321 1 2.10875 -4.01707 -2.9655 
1263 2 1.34507 -3.38157 -1.89432 
938 1 1.62594 -4.16478 -2.42001 
403 1 2.9707 -3.70995 -3.08237 
914 1 2.79643 -4.13921 -2.2439 
1521 2 3.75714 -4.59322 -2.71553 
754 1 3.47435 -3.78148 -1.74353 
1001 1 3.57756 -3.33985 -2.5949 
1240 2 4.54556 -4.25689 -2.69947 
1767 2 5.11064 -3.80976 -3.11409 
1765 2 4.84315 -4.489 -1.90452 
2002 2 5.52013 -4.04618 -2.28785 
1817 2 -5.74483 -3.41929 -3.09553 
1924 2 -4.80453 -3.25075 -2.68449 
968 1 -5.20707 -2.39738 -2.21647 
2007 2 -3.94443 -2.85543 -2.61528 
636 1 -4.40912 -2.00884 -2.4552 
1505 2 -3.01143 -2.51636 -2.31925 
1391 2 -2.31599 -2.08171 -2.37366 
753 1 -1.60436 -2.88172 -2.77493 
677 1 -0.897619 -2.91728 -2.20297 
526 1 -0.219553 -2.49697 -2.76909 
1457 2 1.0395 -3.32008 -2.84764 
211 1 0.694534 -2.50101 -2.22687 
1676 2 2.38056 -2.33244 -3.52542 
1533 2 2.06695 -3.06153 -2.45159 
1326 2 2.72177 -2.60661 -2.63138 
140 1 4.37695 -3.16304 -2.69368 
1350 2 4.20153 -1.6983 -3.35305 
1973 2 3.39537 -2.29964 -3.00599 
1123 2 3.40491 -2.50923 -2.07549 
291 1 -5.53753 -2.23224 -3.08224 
213 1 5.84835 -2.79358 -2.28934 
784 1 5.17632 -2.78447 -2.84316 
1279 2 4.18837 -2.18394 -2.36047 
2035 2 -5.28826 -0.867115 -2.85315 
1972 2 -4.66439 -0.989689 -2.0012 
592 1 -3.72335 -1.57773 -2.48372 
1589 2 -4.03243 -0.522736 -2.37826 
285 1 -2.98629 -1.48812 -1.79121 
58 1 -3.10501 -1.13094 -2.86662 
1682 2 -2.69195 -2.05249 -3.19011 
917 1 -2.60823 -0.737507 -3.36688 
449 1 -2.52436 -0.992551 -2.31306 
1781 2 -0.926171 -1.27911 -3.34344 
630 1 -1.05048 -0.488665 -2.28627 
1808 2 -1.77379 -1.61448 -2.92011 
117 1 -1.92801 -0.437585 -2.68422 
1870 2 -0.825959 -1.49737 -2.58712 
1069 2 -0.146 -1.55964 -2.56575 
1644 2 -0.00372969 -1.18273 -3.27902 
1057 2 0.46896 -1.36851 -1.96755 
1819 2 0.771542 -1.03843 -2.75437 
287 1 1.54338 -1.90134 -2.76029 
215 1 1.56422 -2.2056 -1.90993 
581 1 2.18249 -1.41559 -2.96714 
839 1 2.5547 -1.76957 -2.20443 
125 1 3.00806 -1.26661 -2.87611 
377 1 3.93828 -0.9999 -2.67227 
626 1 3.44927 -1.34082 -2.07843 
1754 2 5.01845 -1.40265 -3.54773 
1962 2 5.65307 -1.39783 -2.77859 
1346 2 5.90007 -0.979428 -3.55407 
334 1 4.63939 -0.803981 -2.1768 
297 1 -4.69914 0.326026 -2.55367 
190 1 -5.36438 0.359958 -3.36382 
1876 2 -4.495 -0.427791 -3.1841 
1098 2 -3.37093 -0.0465716 -2.79575 
32 1 -4.16249 0.811194 -3.06522 
1206 2 -2.38423 0.334031 -2.34197 
1432 2 -3.00092 -0.167357 -2.07606 
419 1 -2.0156 -0.308311 -3.76644 
898 1 -1.41746 -0.267559 -3.18175 
499 1 -0.539571 -0.371236 -2.94663 
594 1 0.527681 0.0188939 -2.72196 
464 1 1.03397 0.0465202 -2.00511 
783 1 1.85675 0.367329 -1.9906 
1916 2 1.65563 -0.687118 -2.49108 
886 1 1.40104 0.532149 -2.75812 
1360 2 2.61187 -0.287511 -2.55595 
50 1 2.34076 0.80219 -2.52951 
1673 2 4.20289 0.553102 -3.15526 
2027 2 3.43309 0.13348 -2.61693 
241 1 -5.64298 -0.0168123 -2.36905 
109 1 5.09363 -0.402272 -2.83802 
1724 2 5.66681 0.86189 -2.24083 
1132 2 -4.52999 1.90315 -2.92718 
1512 2 -4.5892 1.52747 -2.14394 
1720 2 -5.30006 1.24056 -2.52326 
900 1 -3.79368 0.781982 -2.38664 
1938 2 -3.5145 1.95727 -2.47218 
613 1 -2.9177 1.07722 -2.40135 
189 1 -2.25284 1.40886 -2.21322 
94 1 -2.57437 0.988713 -1.47416 
2022 2 -1.49041 0.615568 -2.62975 
115 1 -1.25588 1.68584 -1.80622 
1104 2 -0.699977 0.817222 -2.86789 
1187 2 -0.561729 1.35712 -3.69215 
1340 2 0.106902 1.15724 -2.79859 
1860 2 1.28635 1.61021 -2.60444 
1021 1 1.78944 0.920927 -3.3925 
492 1 3.26301 0.944935 -2.17525 
1642 2 2.12979 2.03784 -2.86118 
1786 2 2.75789 1.86538 -2.09076 
874 1 3.47595 1.33638 -2.88927 
1017 1 4.09211 1.3817 -2.15384 
1952 2 4.97862 0.765341 -2.84062 
1858 2 5.85454 1.26138 -3.10446 
104 1 4.47902 1.86049 -2.57248 
194 1 -5.52033 2.52563 -3.23415 
276 1 -3.77246 3.22661 -2.86165 
1520 2 -2.7873 2.25958 -1.97401 
1415 2 -2.8839 2.49988 -2.86437 
1959 2 -2.09284 2.66673 -2.53737 
1476 2 -1.31014 3.07457 -2.89775 
208 1 -0.716741 2.32301 -3.26472 
2021 2 -1.32304 2.685 -2.0322 
301 1 -0.734454 1.8505 -2.48978 
76 1 0.00134989 2.34611 -2.71055 
1107 2 -0.554329 2.8905 -1.84902 
1974 2 0.365394 3.04659 -1.53891 
143 1 1.5513 2.59007 -1.63807 
478 1 0.919817 2.50014 -2.27764 
510 1 1.80601 2.89943 -2.47467 
1461 2 2.83636 2.3444 -3.34141 
1330 2 3.37136 2.42313 -2.59695 
379 1 2.40353 2.81464 -1.42406 
1026 2 4.06068 2.86581 -2.57515 
811 1 4.94554 1.99649 -3.34593 
1994 2 4.82755 3.10563 -2.92444 
7 1 5.72224 2.12011 -2.6828 
1825 2 5.51124 2.92848 -2.19529 
1328 2 4.68775 2.77913 -2.00751 
1399 2 5.84041 3.41816 -2.91578 
1669 2 -5.01979 3.95713 -3.02172 
1278 2 -5.24768 3.46706 -2.23598 
1527 2 -5.42659 3.25934 -1.38395 
989 1 -3.19131 3.72152 -3.35648 
1419 2 -4.19115 4.26882 -2.77992 
1287 2 -3.34184 4.60145 -2.96658 
26 1 -2.89349 3.45765 -2.53843 
460 1 -2.16296 3.46767 -1.95322 
520 1 -2.39397 3.94963 -3.00274 
733 1 -1.63102 4.07596 -2.55876 
720 1 -0.979571 4.03364 -2.07 
1756 2 -0.510518 3.18214 -2.55948 
1679 2 0.201265 3.54283 -2.18657 
111 1 -0.0899037 4.39049 -1.79215 
1968 2 1.13521 3.73712 -2.42215 
1071 2 2.24532 4.17377 -2.1908 
1981 2 2.08699 3.80921 -1.42112 
34 1 2.65223 3.18783 -2.25674 
1499 2 3.00837 4.47072 -1.90285 
394 1 3.3385 3.66924 -3.05566 
448 1 3.78291 3.81869 -2.37438 
181 1 3.81663 3.40326 -1.63779 
355 1 5.37492 4.32019 -2.63488 
552 1 4.57032 3.91247 -2.35563 
370 1 -5.61286 4.57086 -2.47196 
993 1 -4.94265 5.11422 -2.78274 
255 1 -4.15501 5.4925 -3.23738 
295 1 -3.1854 5.69919 -2.37629 
342 1 -4.08785 5.17482 -2.42169 
1348 2 -2.87299 4.60435 -2.21048 
1335 2 -2.65911 5.0217 -3.0043 
229 1 -2.66823 5.68325 -1.67399 
86 1 -0.985407 4.41993 -3.00337 
1338 2 -0.863212 -5.85954 -3.25831 
1543 2 -1.13902 5.49672 -2.66403 
1339 2 -1.88535 5.14941 -2.6138 
836 1 -0.191538 4.65935 -2.55956 
1915 2 -0.553995 5.37895 -2.06204 
652 1 0.646706 4.84604 -2.30572 
442 1 1.23369 5.17287 -2.9092 
180 1 3.05827 5.77796 -2.42068 
487 1 2.31716 5.53125 -2.84404 
667 1 2.76102 -5.90004 -3.45181 
1593 2 2.68742 4.62688 -2.98986 
1714 2 3.82642 5.09426 -3.33368 
1312 2 -5.88326 -5.80358 -3.29644 
1534 2 5.63764 5.61484 -2.66105 
1773 2 4.94088 5.05973 -1.99327 
452 1 -5.15703 -4.89876 -1.9593 
456 1 -5.39779 -5.39699 -0.964215 
280 1 -4.57811 -5.04476 -0.888281 
1454 2 -3.16333 -5.41164 -1.21483 
1122 2 -3.99589 -5.87734 -1.31695 
1613 2 -2.27809 -5.19441 -0.986603 
1327 2 -1.49586 -4.97884 -0.710722 
1802 2 -1.99168 -4.8124 -1.6075 
678 1 -0.944303 -5.41273 -1.70848 
1932 2 -0.615116 -4.58601 -0.738221 
497 1 -0.993585 -5.90514 -0.971759 
459 1 -0.10527 -5.24203 -1.59331 
304 1 -0.110805 -5.63343 -0.77481 
249 1 1.25026 -4.61604 -1.8329 
245 1 0.786897 -5.13019 -1.22872 
1019 1 1.661 -4.96541 -1.11639 
1749 2 2.95701 -5.59077 -0.758583 
1928 2 2.40457 -5.45083 -1.70346 
1859 2 3.36903 -5.27735 -1.49295 
67 1 3.79944 5.8927 -2.00859 
1409 2 4.24947 -4.96721 -1.09888 
2019 2 3.82134 -5.37774 -0.598902 
153 1 5.70579 -5.22917 -2.01155 
422 1 4.5452 -5.86267 -1.46366 
542 1 5.4856 -5.69659 -1.26913 
1131 2 -5.06598 -3.80469 -1.58461 
182 1 -3.86129 -4.57379 -1.30177 
1545 2 -4.41941 -3.34687 -2.01466 
1289 2 -3.93218 -3.45161 -1.21687 
504 1 -3.10478 -4.25051 -0.937929 
21 1 -2.54391 -3.94079 -1.42821 
46 1 -2.21612 -4.14751 -0.605582 
890 1 -1.61936 -3.56075 -1.02168 
324 1 -1.02232 -3.50378 -0.380497 
1246 2 -1.21916 -4.45238 -1.37859 
844 1 -0.819959 -3.2439 -1.30671 
1753 2 0.120388 -4.29601 -1.35251 
1580 2 0.448953 -3.85139 -2.04353 
1894 2 0.743046 -3.76039 -1.27872 
1066 2 1.87531 -3.52656 -1.1791 
20 1 2.10329 -4.38703 -1.64157 
550 1 2.91635 -4.42304 -1.15347 
1698 2 2.66846 -3.28972 -0.796782 
562 1 4.23765 -3.46865 -1.8525 
137 1 3.79547 -3.94352 -0.909785 
1530 2 -5.93042 -4.28719 -1.40885 
2017 2 5.20573 -4.56534 -1.11311 
928 1 4.66516 -3.71053 -1.07756 
764 1 -5.55767 -2.76278 -1.45592 
734 1 -4.70498 -2.40232 -1.49731 
219 1 -4.30628 -2.5149 -0.779516 
1052 2 -3.44479 -2.97341 -1.81903 
275 1 -3.84945 -2.08202 -1.64521 
1442 2 -2.94144 -2.99613 -0.900538 
722 1 -3.12327 -1.91571 -1.06484 
1216 2 -2.5966 -2.75911 -1.52541 
1449 2 -1.94186 -2.24622 -1.69726 
1459 2 -2.49483 -3.06166 -0.266787 
1801 2 -1.16568 -1.96508 -1.99959 
1235 2 -1.92057 -2.6135 -0.799835 
1113 2 -1.15931 -2.26543 -1.10799 
830 1 -0.0583843 -2.77061 -1.92855 
998 1 0.0299657 -3.08477 -1.14392 
705 1 0.787712 -2.59959 -1.36291 
566 1 1.48267 -2.77698 -0.649738 
703 1 0.701021 -3.01009 -0.472951 
1991 2 2.59925 -3.19455 -1.71342 
1947 2 3.5054 -2.95523 -0.989377 
1978 2 4.10542 -2.46807 -1.43147 
1787 2 3.6497 -3.2479 -0.109935 
296 1 5.06726 -3.12188 -1.92286 
311 1 5.61947 -3.27298 -1.22757 
1641 2 4.9568 -2.06564 -1.82641 
1990 2 5.67184 -1.82028 -1.87196 
1826 2 -5.50219 -1.31713 -1.93397 
1792 2 -5.12213 -1.43967 -1.18749 
1514 2 -4.23597 -1.15407 -1.22507 
1025 2 -3.57324 -0.762285 -1.53653 
683 1 -2.43383 -1.7336 -0.665465 
548 1 -2.25786 -1.31067 -1.428 
1174 2 -3.18645 -0.936763 -0.736683 
59 1 -1.74093 -1.09001 -2.11962 
160 1 -1.29176 -0.942543 -1.47328 
1143 2 -0.322213 -1.77382 -1.5275 
750 1 -0.664255 -1.0626 -0.666181 
1493 2 0.24172 -2.10988 -0.168027 
2046 2 1.30159 -1.15706 -1.73719 
1796 2 0.509491 -1.72713 -1.08554 
1010 1 2.05048 -2.30979 -1.27122 
1897 2 1.80055 -1.21373 -0.956195 
1568 2 2.24117 -0.888177 -1.72017 
145 1 2.8299 -1.89419 -1.24791 
867 1 4.21273 -1.33445 -1.55273 
1946 2 4.89382 -1.80679 -2.63486 
518 1 5.19134 -0.906951 -1.33155 
691 1 5.51549 -0.510999 -2.01038 
230 1 -5.06594 -0.0356803 -1.71153 
876 1 -5.77849 -0.462709 -1.40518 
654 1 -4.69664 -0.200751 -0.996173 
921 1 -3.39959 0.595456 -1.66807 
824 1 -4.14123 0.302065 -1.59099 
912 1 -3.78476 0.0622514 -0.807501 
1507 2 -1.91841 0.0448658 -1.7279 
1128 2 -2.56406 -0.381574 -1.21102 
2043 2 -1.09905 0.511982 -1.89135 
1067 2 -0.990008 0.139944 -1.0963 
963 1 -0.451928 -0.73128 -1.57296 
615 1 0.0871412 -0.479161 -2.22814 
1893 2 -0.168753 0.397327 -1.44533 
776 1 0.746948 -0.293098 -1.38216 
90 1 1.92861 0.150993 -1.16318 
858 1 2.68905 0.48875 -1.41045 
1314 2 2.94734 -0.487937 -1.84428 
1696 2 3.66596 -0.212404 -1.83573 
1320 2 4.42423 -0.166475 -1.21434 
1502 2 4.28272 0.3046 -2.27852 
1680 2 3.71614 -0.627731 -0.887777 
1861 2 5.04637 0.538595 -1.75097 
1803 2 5.90444 0.608637 -1.21199 
1508 2 -4.59341 1.25341 -1.30839 
1282 2 -5.35564 1.06548 -1.62575 
110 1 -5.5482 1.95614 -1.08401 
1229 2 -3.7087 1.70871 -1.82744 
2038 2 -3.87447 1.48315 -1.02126 
1776 2 -3.07609 1.99042 -1.16539 
1170 2 -2.28807 1.86865 -0.805729 
614 1 -2.11397 0.866587 -0.825317 
1305 2 -3.1841 1.49131 -0.608218 
307 1 -2.90348 0.450472 -0.847206 
259 1 -1.79642 1.27102 -1.46264 
192 1 -1.06549 1.09275 -0.79978 
1297 2 -0.172353 0.770314 -2.10693 
1726 2 0.652097 0.745761 -1.22538 
919 1 -0.565271 1.50404 -1.41619 
910 1 0.34837 1.51941 -0.853981 
828 1 1.00062 2.06183 -1.22967 
1944 2 0.663739 1.20614 -2.11338 
1712 2 1.18051 0.661482 -0.53158 
1681 2 1.33155 1.11276 -1.50784 
1967 2 1.94361 1.61376 -1.93822 
1874 2 2.26947 1.52307 -1.13766 
1718 2 3.08884 1.9174 -1.35655 
16 1 3.57644 0.859497 -1.34066 
557 1 4.52222 1.31373 -1.34559 
1065 2 3.8481 1.777 -0.603961 
944 1 5.0931 1.83885 -2.13296 
351 1 5.53858 1.55458 -1.4571 
761 1 -5.67036 2.22887 -1.84157 
69 1 -5.11416 2.46273 -2.42967 
926 1 -4.67942 2.33871 -1.47235 
1276 2 -5.74791 2.84669 -0.575431 
1056 2 -4.663 3.41737 -1.16067 
323 1 -3.47561 3.11948 -1.97628 
966 1 -4.24309 2.77392 -2.18319 
298 1 -3.84249 2.82294 -1.28494 
879 1 -2.88965 3.20672 -1.38317 
1839 2 -2.06819 2.28518 -1.57591 
322 1 -2.83576 2.80553 -0.682425 
1092 2 -1.29848 2.37639 -1.04215 
1406 2 -0.379133 2.46764 -1.10751 
240 1 0.347728 1.9714 -1.86417 
1428 2 0.455326 2.46822 -0.464459 
124 1 1.70857 2.29446 -0.684851 
1854 2 0.825536 3.15125 -0.786265 
114 1 2.57527 2.64527 -0.612783 
786 1 3.50457 2.78847 -0.54651 
1977 2 3.64023 2.33533 -1.87735 
742 1 3.11402 3.17243 -1.61813 
1866 2 4.36315 2.39735 -1.17189 
582 1 4.18666 3.31479 -0.794418 
1368 2 5.29631 2.80223 -1.15122 
1686 2 5.06931 2.35109 -0.59166 
961 1 -5.03125 4.36792 -0.781283 
166 1 -5.55983 4.48933 -1.60217 
1325 2 -3.58146 4.23094 -2.10238 
1105 2 -4.36366 3.81133 -1.95315 
1992 2 -3.51824 4.00912 -1.28786 
1155 2 -2.48079 4.28488 -1.50086 
1601 2 -2.04576 4.83794 -1.79169 
1023 1 -2.0868 3.10016 -1.13811 
418 1 -1.37955 3.68532 -1.5219 
165 1 -0.500571 3.82371 -1.28544 
266 1 -1.22867 3.54264 -0.76023 
361 1 0.509508 4.19815 -1.09658 
1997 2 1.22783 3.48364 -1.61975 
905 1 1.493 4.57246 -0.786439 
1126 2 1.67622 3.41778 -0.686934 
736 1 1.22551 4.60534 -1.59023 
1559 2 3.67668 4.55764 -1.56587 
1042 2 3.08337 4.063 -0.991823 
650 1 4.52156 3.81847 -1.47777 
1612 2 3.34817 4.84786 -2.65005 
1090 2 4.0129 4.9967 -2.39257 
432 1 5.45679 4.06678 -1.79045 
580 1 5.15302 3.81632 -0.952862 
974 1 5.96034 4.14514 -0.798617 
1285 2 -5.39414 5.91042 -2.15029 
589 1 -4.74153 4.82414 -2.04702 
1203 2 5.83885 5.44752 -1.73821 
1918 2 -5.0171 5.69468 -1.49816 
952 1 -4.43051 4.83555 -1.33322 