ITEM: TIMESTEP
7400
ITEM: NUMBER OF ATOMS
2048
ITEM: BOX BOUNDS pp pp pp
-5.9503474203469340e+00 5.9503474203469340e+00
-5.9503474203469340e+00 5.9503474203469340e+00
-5.9503474203469340e+00 5.9503474203469340e+00
ITEM: ATOMS id type x y z 
1661 2 -6.01331 -4.70711 5.5578 
1849 2 -5.71859 -4.55233 -5.4924 
407 1 -5.5524 5.88827 -5.23039 
1192 2 -5.13617 -4.60516 -4.8558 
825 1 -4.72674 -5.79296 -4.79058 
554 1 -3.57449 -5.02762 -5.81496 
14 1 -4.02131 -5.30327 -5.0927 
3 1 -2.81991 -4.78038 -5.71356 
1138 2 -1.92525 -5.6683 -5.90691 
91 1 -2.12467 -4.85403 -5.19488 
530 1 -2.39932 -4.3169 5.65095 
1291 2 -1.59284 5.96258 -4.91485 
247 1 -1.65877 -4.88917 -4.48583 
1746 2 -0.608702 -5.42776 -5.03284 
2029 2 -0.380645 -4.94957 -5.67506 
1709 2 0.418731 -4.7996 -5.42871 
135 1 0.75896 -5.68587 -5.77855 
857 1 1.54429 -5.60936 -5.25351 
434 1 2.42101 -5.03501 -5.45032 
723 1 3.15282 -4.8617 -5.13776 
931 1 2.47122 -4.60945 5.54174 
1677 2 4.35389 -5.28858 5.90299 
131 1 4.10861 -4.62016 -4.61187 
1846 2 3.75287 -5.76441 -5.33307 
1799 2 5.35386 -4.99511 -5.59394 
1604 2 5.29179 -5.47464 -4.56119 
1272 2 -5.86923 -5.04956 -4.7609 
273 1 -5.19412 -3.27359 -5.35133 
1633 2 -4.83981 -4.34796 -5.66527 
878 1 -5.00382 -3.63759 -4.43613 
1548 2 -3.75647 -3.95039 -5.54721 
1663 2 -3.01335 -4.0441 -4.99789 
1046 2 -2.74218 -3.50478 -5.59739 
1452 2 -2.28497 -3.47313 -4.97529 
1602 2 -1.39204 -3.43241 -4.71627 
902 1 -1.1916 -4.38698 -4.96547 
855 1 -1.68295 -4.21636 -5.67199 
202 1 0.334585 -3.38833 -5.82871 
924 1 0.0383761 -3.79878 -5.1293 
1790 2 1.34481 -4.4513 -5.30216 
1694 2 0.920983 -4.26018 5.75146 
1705 2 1.90333 -3.96624 -5.81346 
1466 2 2.60772 -3.9122 -5.30345 
1198 2 2.05455 -4.32506 -4.73986 
1483 2 3.22491 -3.46249 -5.5931 
809 1 3.30115 -4.55304 -5.93201 
429 1 3.9927 -4.48982 -5.40833 
19 1 4.86982 -4.18596 -5.09706 
817 1 5.47434 -3.67167 -5.51087 
1588 2 -5.10848 -2.09062 -5.415 
1937 2 -5.77694 -2.47362 -5.05327 
373 1 -4.4953 -2.83374 -5.92468 
269 1 -3.7158 -2.87052 -5.26651 
991 1 -4.40095 -3.19093 -4.85423 
353 1 -2.84038 -2.62849 -5.0236 
391 1 -2.11235 -2.33508 -5.36003 
402 1 -1.85225 -2.47188 -4.67354 
1379 2 -0.465612 -3.06677 -4.53107 
151 1 -1.28947 -1.99882 -5.04439 
1231 2 -0.840502 -2.85728 -5.55406 
1763 2 0.675516 -2.5615 -4.90311 
1255 2 -0.0607646 -2.48103 -5.42394 
819 1 1.03671 -3.50689 -5.42776 
1909 2 0.597048 -2.2283 5.82119 
694 1 1.94512 -3.33932 -4.7688 
975 1 2.34966 -2.60598 5.89583 
475 1 2.58843 -2.8119 -5.15741 
471 1 2.70836 -3.03128 -4.25946 
1129 2 4.03468 -3.27964 -5.74472 
939 1 3.48244 -2.32433 -5.48881 
904 1 4.21101 -1.98191 -5.26238 
277 1 3.59157 -2.63873 -4.48474 
1070 2 5.55875 -2.46637 -5.63545 
2032 2 5.3437 -2.89605 -4.78377 
1475 2 4.64155 -2.87741 -5.36812 
1382 2 5.23763 -2.30387 5.37894 
55 1 -4.5638 -0.853139 -5.49034 
214 1 -5.29536 -1.01883 -5.14768 
1341 2 -4.26666 -1.82324 -5.65079 
1733 2 -3.21003 -1.38099 -5.49834 
505 1 -3.98688 -0.90194 -4.85439 
848 1 -4.70626 -1.1729 -4.56628 
1271 2 -3.13783 -1.70261 -4.40105 
1908 2 -2.50982 -1.25061 -5.09931 
1569 2 -1.71543 -1.15245 -4.84463 
1635 2 -2.36934 -1.55893 -4.23592 
595 1 -0.44251 -1.64414 -5.09359 
35 1 0.476442 -1.38983 -5.00253 
8 1 1.18847 -1.08856 -4.753 
1964 2 1.70255 -1.65493 5.87296 
578 1 1.06201 -0.938207 -5.70936 
2048 2 3.05607 -1.62883 -4.84698 
1190 2 2.02178 -1.93549 -4.96226 
1224 2 4.33253 -0.459812 -5.73871 
1363 2 3.81111 -0.959871 -5.29791 
1202 2 3.29488 -1.07545 5.75689 
1623 2 4.64271 -0.779835 -4.89606 
25 1 5.12338 -1.57104 -5.16033 
308 1 4.72929 -1.59819 -5.90686 
771 1 5.88394 -1.07681 -5.62954 
1615 2 -5.8464 0.0884267 -5.69849 
2001 2 5.72013 -0.262524 -4.81248 
1830 2 -5.37445 0.0850587 -5.08773 
2028 2 -4.45677 0.32735 -5.29937 
1184 2 -4.16748 0.0660647 -4.50295 
932 1 -3.87162 -0.402186 -5.70848 
1643 2 -3.55712 0.825595 -5.46012 
749 1 -2.339 -0.227161 -4.76811 
701 1 -2.95659 -0.525366 -4.32869 
374 1 -2.47064 0.0620828 -5.51753 
234 1 -1.65626 0.30139 -5.11085 
212 1 -1.67941 0.524606 5.93868 
1478 2 0.342199 -0.139538 -4.61192 
1573 2 0.589661 0.0162583 -5.4873 
1867 2 -0.716262 -0.686174 -4.78817 
1572 2 -0.239514 -0.212488 -5.50542 
1963 2 1.33726 0.457322 -5.97725 
1223 2 1.30106 0.148217 -5.06593 
31 1 1.90541 -0.794091 -5.34441 
640 1 2.51175 -0.768719 -4.84355 
560 1 2.56157 -0.364773 -5.73332 
866 1 3.17535 -0.188173 -4.95275 
846 1 3.02734 -0.497236 -4.17335 
700 1 4.11777 0.557572 5.89749 
116 1 3.99888 0.21669 -5.06671 
1634 2 5.18278 -0.409445 -5.58607 
302 1 4.84008 0.671626 -5.42386 
915 1 5.67449 0.864532 -5.42522 
338 1 -4.50463 1.44837 -4.86566 
420 1 -5.41624 1.20189 -5.32878 
1256 2 -3.816 1.08606 5.67945 
656 1 -4.67584 1.7464 -5.68659 
980 1 -3.46398 1.72658 -4.59111 
752 1 -3.82075 2.0146 -5.38664 
1443 2 -2.66603 1.21711 -5.55738 
1576 2 -1.82661 1.39843 -5.32727 
1165 2 -1.06423 1.80146 -5.27924 
365 1 -1.01 1.05014 5.49125 
827 1 -0.817271 0.659325 -5.45915 
842 1 0.133953 0.88222 -5.17786 
408 1 1.3475 1.51317 -5.58123 
895 1 2.13928 1.77541 -5.45353 
1180 2 2.18293 0.226604 -4.53578 
380 1 2.52464 1.69449 -4.46116 
1785 2 3.036 0.849074 -4.96535 
1852 2 2.29401 0.658525 -5.33223 
1882 2 2.97219 1.16453 -5.79477 
1226 2 3.77852 1.37869 -5.4255 
1910 2 3.73122 1.00336 -4.54268 
1172 2 4.66427 1.52311 -4.93366 
818 1 5.7059 1.26643 5.79923 
1377 2 -5.60989 1.96493 -4.58659 
188 1 -5.80826 3.17365 -4.81227 
1431 2 -5.5224 2.26512 -5.38454 
1716 2 -4.88995 2.76188 -5.28636 
1620 2 -4.02667 2.84741 -4.79852 
1762 2 -4.07979 3.28078 -5.60072 
820 1 -2.97944 2.27365 -5.52573 
1015 1 -2.20878 2.79328 5.82701 
903 1 -2.58747 2.04464 -4.70688 
719 1 -2.0451 2.54024 -5.27848 
494 1 -0.986686 2.89191 -5.09546 
28 1 -1.31972 3.02665 -5.94514 
1639 2 -0.204902 2.02702 -5.54396 
1281 2 -0.536981 2.29411 5.44552 
1628 2 1.85976 2.43369 -4.62498 
1979 2 2.01169 2.93104 -5.44403 
1506 2 1.24862 2.58412 -5.34632 
63 1 2.41936 1.97895 5.68615 
621 1 2.8352 2.16016 -5.2673 
1214 2 2.56639 3.05626 -4.7137 
1769 2 3.46442 3.43274 -5.02713 
396 1 3.64586 2.47476 -5.33709 
445 1 4.44983 2.84888 -5.51792 
1396 2 5.38991 2.03696 -5.50792 
204 1 5.26689 3.11531 -5.11107 
92 1 -4.67304 3.85487 -4.83527 
923 1 -5.35846 3.74235 -5.467 
1971 2 -5.39203 4.59388 -4.71677 
607 1 -3.95829 4.22812 -5.21386 
797 1 -3.27037 3.98749 -4.72203 
45 1 -3.27076 4.51701 -5.56005 
1877 2 -3.19519 3.06045 -5.00182 
1142 2 -2.53129 3.509 -5.31134 
1869 2 -1.95388 3.81145 -5.64296 
1824 2 -1.29033 3.80939 -4.88292 
72 1 0.956057 3.36965 -4.93479 
852 1 -0.329262 3.24953 -5.67012 
1926 2 -0.348566 4.07414 -4.79512 
1304 2 0.504963 4.3635 -4.93513 
1336 2 -0.721201 4.26277 -5.54926 
710 1 0.491851 3.49437 -5.62761 
950 1 1.40926 3.99973 -5.65303 
709 1 1.95023 3.8926 -5.12313 
716 1 2.70344 4.30144 -4.83116 
777 1 2.37174 4.38409 -5.8016 
1130 2 2.80242 3.4421 -5.62619 
1274 2 4.13113 3.74934 -5.56921 
1073 2 4.35683 3.95794 -4.76346 
1342 2 4.5449 4.32541 5.88894 
178 1 5.75724 3.47983 -5.71051 
1618 2 5.15995 4.19094 -5.10356 
1640 2 -5.96536 4.61716 -5.37583 
1670 2 -5.289 5.09517 -5.87328 
579 1 5.82525 5.30318 -4.42952 
1349 2 -4.89666 5.05841 -5.20148 
1575 2 -4.65777 4.80062 -4.33485 
1048 2 -4.00639 5.40111 -5.18927 
250 1 -2.75785 4.61047 -4.85183 
1413 2 -3.32654 5.70205 -5.24368 
1151 2 -2.32006 5.60553 -4.63431 
82 1 -1.81889 4.66024 -5.20534 
17 1 -1.1165 5.0986 -5.23347 
568 1 -1.48981 4.7568 -4.41415 
1354 2 0.25808 4.83681 -5.60882 
495 1 -0.155678 5.6974 -5.27789 
822 1 0.804817 5.84106 -4.92664 
1039 2 1.3424 4.90899 -5.14556 
1847 2 2.58356 5.40589 -5.07037 
1823 2 2.62516 5.94091 -5.84322 
501 1 3.28045 4.56357 -5.58527 
653 1 3.79484 4.92005 -4.87703 
48 1 4.25237 5.18902 -5.52155 
1875 2 4.62349 -5.50649 -4.9989 
699 1 5.32929 5.54366 -5.1458 
662 1 4.63508 5.07037 -4.77474 
486 1 4.83028 5.69492 -5.9855 
1418 2 -5.03888 -5.09471 -4.02906 
1079 2 -4.23663 -4.85972 -3.90076 
1477 2 -4.14178 -4.36184 -4.73022 
1008 1 -3.60464 -5.63993 -4.24321 
1807 2 -3.5272 -4.78168 -3.60464 
333 1 -3.00752 -5.21579 -4.79402 
508 1 -3.16062 -5.82971 -3.51134 
805 1 -2.55271 -5.35845 -4.09744 
1429 2 -0.954925 -5.87834 -4.19556 
274 1 -1.61997 -5.20033 -3.51469 
1029 2 -0.154274 -5.63001 -4.15122 
1260 2 0.280829 -5.26423 -4.6889 
1486 2 0.876332 -5.258 -3.86274 
673 1 1.89353 -5.75997 -4.4393 
1737 2 1.12088 -4.93572 -4.65646 
64 1 2.59074 -5.27201 -4.53267 
648 1 2.716 -5.59814 -3.60508 
1844 2 2.59968 -4.45024 -3.76879 
575 1 1.99508 5.82001 -3.62362 
1013 1 3.41122 -5.02621 -4.1994 
666 1 4.17876 -5.02411 -3.75003 
496 1 5.45024 -4.73316 -3.37532 
1358 2 5.73509 -5.60985 -3.84725 
75 1 -5.77282 -3.71707 -4.84657 
246 1 -4.60846 -3.908 -3.6409 
798 1 -5.47473 -4.01812 -3.90344 
483 1 -3.97722 -3.46605 -3.92509 
1261 2 -3.37674 -4.36128 -4.31836 
1106 2 -2.65481 -4.36831 -3.58574 
1402 2 -2.39467 -4.08996 -4.39894 
2009 2 -1.56507 -3.96053 -4.02024 
467 1 -0.470715 -4.38455 -4.69877 
1711 2 -0.769205 -3.57673 -3.91369 
453 1 -0.915864 -4.82683 -3.88925 
1280 2 -1.10736 -4.00032 -3.33551 
413 1 0.601286 -3.95776 -4.60711 
326 1 0.00618968 -4.51139 -4.06087 
1678 2 1.75294 -4.85817 -3.94103 
122 1 1.36735 -3.57746 -4.41057 
782 1 0.851873 -4.26447 -3.81959 
547 1 2.21321 -3.40658 -3.71889 
1836 2 2.9465 -4.04188 -4.41022 
1995 2 3.73296 -3.59678 -4.82715 
2010 2 3.4812 -4.06541 -3.72961 
1655 2 4.29398 -3.81707 -3.73775 
1929 2 4.61671 -3.32418 -4.49515 
339 1 5.52619 -4.18083 -4.30521 
847 1 4.77822 -4.60017 -4.1745 
1240 2 4.89024 -3.8399 -3.11262 
1911 2 -5.02496 -2.48185 -4.23574 
1871 2 -4.4582 -2.73981 -3.49407 
1657 2 -5.77007 -2.83268 -4.09074 
1465 2 -4.45378 -2.19458 -4.79554 
218 1 -3.3832 -3.14915 -4.45197 
1097 2 -3.79532 -2.38182 -3.95267 
664 1 -3.07519 -3.41945 -3.62338 
236 1 -2.45686 -2.94786 -4.03604 
196 1 -1.36183 -2.69917 -4.02233 
597 1 -0.773304 -2.12378 -4.23443 
1370 2 0.0396786 -3.34999 -3.75772 
1006 1 -0.225411 -2.2619 -3.52604 
367 1 0.55262 -1.94376 -3.45677 
1555 2 1.20008 -2.0368 -5.38919 
1581 2 0.389733 -2.94977 -4.19665 
1083 2 1.52408 -2.37589 -4.26766 
403 1 2.79672 -3.42784 -3.22367 
1259 2 2.26417 -1.96002 -4.03032 
602 1 3.45874 -3.06554 -3.68613 
609 1 4.37926 -2.18168 -4.46182 
1201 2 5.32033 -3.37754 -3.92701 
740 1 5.24048 -1.90593 -4.3495 
66 1 5.16507 -2.40421 -3.61221 
833 1 5.96498 -1.98475 -3.68663 
717 1 -5.37564 -1.60425 -4.0933 
205 1 -4.80285 -1.76947 -3.36764 
161 1 -4.25726 -1.41151 -3.91572 
1745 2 -3.7051 -1.99668 -4.79992 
767 1 -3.6157 -0.912853 -3.95439 
58 1 -3.1828 -1.23443 -3.25119 
1682 2 -2.75913 -2.12807 -3.63712 
917 1 -2.26075 -1.18118 -2.68318 
1781 2 -1.62545 -1.72902 -3.51734 
704 1 -2.58139 -0.714293 -3.55924 
1345 2 -1.21344 -1.18785 -4.08054 
1069 2 -0.752462 -1.41229 -3.07609 
11 1 0.152431 -1.79648 -4.26957 
1644 2 0.14444 -1.10724 -3.12435 
421 1 1.03838 -1.58597 -4.06902 
674 1 1.92981 -0.937193 -4.30206 
768 1 1.69089 -1.38669 -3.3861 
1030 2 3.03141 -1.81303 -3.99178 
106 1 2.58815 -1.00813 -3.62892 
1167 2 3.86051 -1.73284 -3.68027 
2036 2 3.89418 -1.20012 -4.49231 
427 1 3.42751 -0.64408 -3.43076 
543 1 5.9516 -1.53139 -4.73303 
1163 2 5.38964 -0.770642 -4.18025 
1110 2 4.77477 -1.12536 -3.92622 
1111 2 -5.65896 -0.541065 -4.14381 
278 1 -5.3772 0.603014 -3.61408 
1498 2 -4.95726 -0.0730981 -4.48502 
1834 2 -3.82169 -0.103205 -3.6506 
1736 2 -3.42798 0.423475 -4.42927 
630 1 -1.76267 -0.652408 -3.37414 
37 1 -1.83538 -0.145108 -4.13731 
799 1 -1.17668 0.128047 -4.5074 
1537 2 -0.284201 -0.942562 -4.07445 
1296 2 0.594822 -0.69648 -3.70124 
789 1 -0.314709 0.654729 -4.46114 
1456 2 1.32857 -0.291368 -3.48653 
1975 2 1.16768 -0.0356864 -4.33555 
1412 2 1.9401 0.0204324 -3.83495 
1470 2 2.97545 0.587405 -4.13183 
1832 2 3.40975 0.216857 -2.85875 
715 1 4.19922 -0.142018 -4.2486 
1777 2 3.70368 0.673329 -3.61203 
469 1 4.84381 0.280353 -4.72417 
872 1 5.65615 0.705899 -4.59034 
692 1 4.78373 0.0142927 -3.5762 
697 1 -5.27829 0.981136 -4.50749 
1986 2 -5.91551 1.69281 -3.81868 
1132 2 -5.0182 1.97559 -3.715 
164 1 -3.88976 1.27998 -3.9546 
689 1 -4.75736 0.965199 -3.92292 
613 1 -3.48787 1.14926 -3.24917 
1050 2 -2.6598 0.793525 -4.78224 
489 1 -2.89196 1.66282 -3.8197 
1550 2 -2.32656 0.737297 -3.97715 
1054 2 -1.70202 1.17658 -4.42936 
1149 2 -1.54613 0.773805 -3.59915 
80 1 0.933654 1.02411 -4.78657 
1063 2 -0.906758 1.47567 -4.52337 
1386 2 -0.801217 1.27043 -3.71586 
1364 2 -0.11413 1.94524 -4.62991 
625 1 0.603529 0.866096 -4.03717 
254 1 1.73958 1.20359 -4.65215 
760 1 1.53399 1.01424 -3.75268 
1011 1 2.36189 1.27409 -3.76481 
731 1 3.08198 1.50582 -3.37234 
1673 2 4.42618 0.731701 -3.00497 
894 1 3.46824 2.08565 -4.43503 
381 1 3.95591 1.8917 -3.76252 
2008 2 4.55314 1.13422 -4.13038 
1497 2 5.42539 1.78184 -4.57948 
1068 2 5.28383 1.21751 -3.73835 
1654 2 -4.81745 2.41388 -4.52643 
676 1 -5.03729 3.34243 -4.17993 
726 1 -5.92795 2.82432 -3.92878 
1485 2 -4.2334 2.28949 -3.99971 
1728 2 -3.53966 2.67235 -4.16013 
369 1 -4.55549 3.07947 -3.42789 
1625 2 -2.79825 2.94326 -4.14904 
1607 2 -2.26236 3.05531 -3.44 
982 1 -1.42493 2.39063 -4.45994 
843 1 -0.621919 2.68071 -4.23285 
1476 2 -1.50391 3.47008 -3.93866 
1683 2 0.60028 2.09405 -5.13686 
561 1 0.0415927 2.99 -4.71306 
397 1 0.0498895 2.68537 -3.60731 
56 1 0.767137 3.01123 -4.1467 
2020 2 0.956275 2.05874 -4.37152 
896 1 1.48195 3.16791 -3.46112 
1158 2 1.58439 2.20145 -3.64916 
1999 2 2.34891 2.60443 -3.94184 
1522 2 3.10657 2.85508 -4.04584 
1562 2 4.26098 3.13553 -3.44391 
171 1 4.27636 2.51946 -4.67559 
869 1 5.06171 2.77042 -4.42134 
702 1 4.65845 2.2246 -3.87791 
811 1 5.50242 2.41478 -3.38889 
1275 2 -5.49921 4.15697 -3.77477 
1333 2 5.69273 3.76022 -3.35344 
989 1 -4.17974 3.70682 -4.11274 
26 1 -3.52047 3.54478 -3.39287 
1957 2 -4.34271 4.54256 -3.58687 
446 1 -2.9359 3.98818 -3.77318 
340 1 -2.25413 4.15906 -4.26085 
1175 2 -2.12941 3.28513 -4.49041 
1268 2 -0.591965 3.64338 -3.9752 
86 1 -1.21111 4.66514 -3.62079 
1689 2 0.208911 3.97835 -3.99769 
1161 2 0.945501 4.22377 -4.25627 
1183 2 0.680838 3.85555 -3.25154 
310 1 1.67293 3.55258 -4.31915 
510 1 2.17952 3.40362 -3.16696 
1372 2 1.46642 4.26474 -3.39708 
884 1 2.34701 3.72079 -3.93748 
183 1 3.19842 3.89376 -3.70647 
2039 2 3.91936 3.41342 -4.2798 
256 1 3.34232 4.40909 -4.49399 
835 1 4.15003 4.68989 -4.14215 
1439 2 4.92233 3.67383 -3.92924 
1636 2 5.67032 4.10652 -4.38873 
1994 2 5.12801 3.23549 -2.85924 
435 1 -5.37534 5.76427 -4.44005 
918 1 -5.78463 5.14061 -3.62506 
346 1 -4.98735 5.42619 -3.56078 
1038 2 -3.84175 4.9396 -4.3307 
473 1 -4.32444 5.82284 -4.07296 
1236 2 -3.54843 4.83831 -3.56827 
1329 2 -2.58783 5.21639 -3.69047 
1526 2 -3.12417 5.36602 -4.41608 
1334 2 -1.70494 5.59171 -3.87312 
123 1 -0.702785 5.14194 -4.52729 
1571 2 -1.20059 5.69234 -3.1785 
628 1 -0.247212 4.96623 -3.85597 
503 1 0.224203 5.23209 -4.47108 
564 1 0.707781 5.24656 -3.76668 
959 1 1.27457 5.6523 -4.17186 
1668 2 1.70642 4.64501 -4.3038 
2040 2 2.19903 4.63086 -3.59273 
1667 2 3.23704 5.76406 -4.58659 
1955 2 2.42443 5.15434 -4.29313 
1691 2 3.13089 5.35666 -3.84278 
1244 2 4.04931 5.95824 -4.49662 
1704 2 4.86237 5.90999 -3.86951 
443 1 5.10139 4.89833 -4.06219 
775 1 4.66717 4.48042 -3.41031 
1425 2 5.26266 5.7909 -3.14741 
1394 2 -5.80377 -5.91577 -3.15884 
1197 2 -4.97951 -5.39641 -3.30565 
1822 2 -4.77923 -5.74519 -2.43831 
153 1 5.82133 -5.27147 -1.62736 
1285 2 -5.69484 5.98577 -2.36765 
1047 2 -4.12837 -5.14779 -2.97457 
1404 2 -3.52806 -5.2457 -2.38958 
1783 2 -3.00075 -4.87509 -2.90502 
260 1 -2.35091 -5.71546 -3.35786 
1613 2 -2.86511 -4.97727 -1.91501 
337 1 -0.971636 -5.17454 -2.78179 
934 1 -0.347485 -4.76842 -3.23455 
954 1 -1.68756 -5.44515 -2.62488 
5 1 0.503228 -4.50433 -3.01582 
1592 2 0.418649 -5.70688 -3.25435 
678 1 -1.02928 -5.60762 -1.9157 
147 1 -0.189021 -5.04719 -2.15269 
1742 2 1.23094 -5.43516 -3.02679 
661 1 0.654192 -4.78369 -2.22036 
1319 2 1.77355 -5.53785 -2.34802 
1082 2 1.9687 -5.00714 -3.15083 
180 1 3.23296 5.88254 -2.11739 
1563 2 3.16422 -4.61051 -3.18592 
1887 2 2.58969 -4.97106 -2.57165 
57 1 3.53414 -5.54073 -3.07119 
955 1 4.62853 -5.24941 -3.10011 
1194 2 3.66794 -4.85127 -2.24347 
67 1 4.10514 -5.74539 -2.38356 
422 1 4.99451 -5.42409 -2.28121 
284 1 5.84504 -4.97841 -2.6447 
1400 2 -5.61729 -3.53627 -2.57306 
411 1 -5.60039 -4.42428 -3.22474 
864 1 -5.33586 -4.74469 -2.29637 
1817 2 -4.81436 -3.3375 -2.76765 
524 1 -3.77563 -3.7482 -3.05243 
366 1 -4.78531 -4.30837 -2.8592 
182 1 -3.90346 -4.3534 -2.19532 
599 1 -3.25889 -3.79584 -2.42215 
1843 2 -1.79699 -4.23005 -3.11061 
313 1 -2.50677 -3.34851 -2.877 
1531 2 -2.21202 -4.59821 -2.37163 
1896 2 -0.738485 -4.08457 -2.40423 
1878 2 -0.299168 -3.78104 -2.87999 
328 1 1.28892 -4.28335 -2.80992 
1848 2 0.814651 -3.36653 -2.36141 
249 1 1.51041 -4.58822 -2.05329 
321 1 2.05191 -3.71807 -2.68044 
107 1 1.55157 -3.89665 -3.6358 
1521 2 4.07344 -4.194 -2.83552 
914 1 3.00918 -3.65825 -2.44799 
754 1 3.41717 -3.67623 -1.8298 
1767 2 5.83027 -3.42391 -3.26638 
1765 2 4.75616 -4.42771 -2.23466 
2002 2 5.49122 -4.09962 -2.38885 
1664 2 -5.29222 -3.04166 -3.43913 
291 1 -5.60488 -2.09154 -2.8823 
2007 2 -4.03996 -2.86195 -2.80776 
1086 2 -3.39948 -2.3946 -3.21981 
1052 2 -3.83902 -2.85623 -2.03053 
1505 2 -3.12316 -2.53158 -2.33147 
1391 2 -1.87947 -2.37618 -2.15476 
388 1 -1.88663 -3.09692 -3.37823 
753 1 -1.44145 -3.00783 -2.72053 
657 1 -0.973371 -2.7203 -3.3518 
677 1 -0.719441 -3.14049 -2.08315 
573 1 -0.306644 -2.67583 -2.71443 
1645 2 0.549942 -3.45027 -3.14558 
1982 2 1.21441 -2.83796 -3.6695 
1457 2 1.38241 -2.91342 -2.62087 
211 1 1.38753 -2.15754 -1.86405 
1676 2 2.92969 -2.26992 -3.17408 
1401 2 1.99618 -2.50775 -3.30522 
1533 2 2.42784 -2.64651 -2.5649 
1263 2 2.13915 -2.9583 -2.02355 
999 1 4.32968 -2.65576 -3.67115 
1001 1 3.65125 -3.20811 -2.82362 
1326 2 3.50339 -2.39065 -2.37462 
213 1 5.91145 -2.88713 -1.87076 
784 1 5.46364 -2.65445 -2.78553 
140 1 4.43842 -2.91027 -2.72454 
1754 2 5.3206 -1.78615 -2.47981 
2035 2 -5.37579 -0.875333 -3.29931 
1876 2 -4.67776 -0.846037 -2.84634 
1962 2 -5.64951 -1.13953 -2.56503 
1972 2 -4.75905 -1.08275 -2.00712 
636 1 -4.61398 -2.03471 -2.46419 
592 1 -3.94201 -1.44871 -3.05209 
275 1 -3.89115 -1.83512 -2.08307 
1589 2 -3.58267 -0.662186 -2.09588 
1808 2 -2.34633 -2.34908 -2.87975 
285 1 -3.15702 -1.48826 -2.34156 
117 1 -1.66989 -0.893682 -2.14313 
1801 2 -1.20525 -1.9381 -2.6528 
1870 2 -0.28686 -1.63652 -2.33665 
1819 2 0.925962 -0.685989 -2.7226 
1057 2 0.550812 -1.24551 -2.19971 
2046 2 1.4723 -0.781306 -1.93311 
287 1 1.23029 -1.81994 -2.83728 
215 1 1.9669 -1.6833 -2.38966 
1143 2 0.771547 -1.42355 -1.39434 
581 1 2.69403 -1.40348 -2.85055 
839 1 3.00742 -1.43037 -1.92721 
125 1 3.4177 -0.965211 -2.58482 
1350 2 4.79697 -1.60322 -3.19706 
1973 2 3.90803 -1.88102 -2.8452 
377 1 4.25209 -0.850806 -2.45104 
1346 2 5.61243 -1.22185 -3.28981 
1436 2 -4.75498 -0.309839 -3.70351 
241 1 -5.71051 0.0519449 -2.90018 
297 1 -4.86659 0.169123 -2.65204 
1098 2 -3.93142 -0.380168 -2.86817 
1206 2 -3.13089 -0.190318 -2.89148 
900 1 -3.77923 0.653197 -2.37118 
1761 2 -2.88806 0.292933 -3.5731 
1507 2 -2.37579 -0.176065 -2.32215 
419 1 -0.940283 -0.172805 -3.68371 
59 1 -1.1089 -0.581427 -2.68762 
2043 2 -1.53653 0.339462 -2.01472 
2022 2 -2.02436 0.289495 -2.95494 
517 1 -0.143858 0.0734859 -3.73238 
898 1 -0.403616 -0.0676303 -2.79133 
464 1 0.364521 0.0146346 -2.33789 
499 1 0.432824 0.415422 -3.18479 
783 1 1.07769 0.281334 -2.08198 
1916 2 2.03516 -0.325316 -2.78653 
1517 2 2.59631 0.0933267 -3.31735 
1360 2 2.70928 -0.232044 -2.45573 
199 1 4.27634 -0.612961 -3.24988 
2027 2 4.02943 0.105593 -2.39584 
1696 2 3.49429 -0.124151 -1.7844 
190 1 5.64208 0.289049 -3.69471 
1952 2 4.92529 0.537759 -2.38743 
109 1 5.2233 -0.320458 -2.96942 
1512 2 -4.50835 1.64202 -2.79037 
1858 2 -5.64417 1.44658 -3.09867 
1720 2 -5.21432 1.28465 -2.45959 
32 1 -4.27197 0.714833 -3.25585 
189 1 -3.03884 0.986451 -2.59649 
1520 2 -3.38306 1.97225 -2.41823 
686 1 -2.35067 1.43892 -3.11781 
585 1 -2.07457 2.07075 -3.89341 
259 1 -1.8394 1.43144 -2.34645 
1104 2 -1.15728 0.568886 -2.76308 
134 1 -1.57031 1.81337 -3.08284 
115 1 -1.03048 1.75275 -2.50669 
1187 2 -0.408587 1.05645 -2.92987 
1310 2 -0.0220315 1.60296 -3.61035 
1297 2 0.0541301 1.06477 -2.10298 
594 1 1.30519 0.67459 -3.00015 
1340 2 0.540082 1.43277 -2.68984 
1860 2 1.33361 1.8212 -2.67442 
1021 1 2.22729 0.896697 -3.02994 
492 1 2.77279 0.994344 -2.40432 
1642 2 2.1742 1.92997 -2.80868 
1786 2 2.722 1.96996 -2.06965 
886 1 1.96246 0.592737 -2.19451 
874 1 3.88556 1.64336 -2.9121 
1017 1 4.70554 1.44965 -1.94857 
1724 2 5.96035 0.803336 -2.25872 
1953 2 5.43093 1.0061 -2.92422 
104 1 5.45882 1.93295 -2.35744 
631 1 -5.38658 2.93525 -3.17811 
194 1 -4.75704 2.63739 -2.43689 
7 1 -5.83741 2.40608 -2.65143 
1938 2 -3.88316 2.2503 -3.0311 
276 1 -3.95703 3.17405 -2.72277 
1794 2 -3.05013 2.52265 -3.25784 
1415 2 -2.62586 2.42149 -2.65232 
1959 2 -1.76649 2.78672 -2.63928 
460 1 -3.12611 3.313 -2.27623 
208 1 -1.09492 2.3811 -3.59098 
1756 2 -1.1295 3.38806 -3.02696 
301 1 -0.34125 2.31926 -2.81971 
76 1 0.679247 2.80176 -2.95322 
1107 2 -0.583618 3.17385 -2.36258 
1838 2 0.830805 1.84278 -3.38136 
885 1 1.41891 2.92109 -2.61946 
143 1 1.21458 2.60277 -1.9144 
1461 2 2.71932 2.44494 -3.14708 
1977 2 3.61018 2.44453 -2.20968 
742 1 2.93411 3.25747 -1.98999 
1330 2 3.50265 2.72686 -3.27153 
1866 2 4.39082 2.47225 -1.73718 
232 1 4.82156 1.90278 -2.94535 
1026 2 4.23017 2.73399 -2.70369 
1825 2 5.89276 3.34705 -2.14021 
1399 2 -5.62372 3.91424 -2.7786 
1669 2 -4.90128 4.00861 -3.1201 
1278 2 -4.53746 3.87891 -2.35225 
355 1 -5.69725 4.81738 -2.29247 
1419 2 -3.88459 4.32165 -2.80936 
1325 2 -3.41332 4.30149 -2.02113 
1155 2 -2.85309 4.09891 -1.24246 
772 1 -2.63437 3.83568 -2.93919 
612 1 -2.00471 4.20757 -3.37757 
520 1 -2.05827 3.65729 -2.29722 
1348 2 -2.63689 4.49344 -1.972 
733 1 -1.49153 4.17628 -2.57702 
720 1 -0.728324 4.45621 -3.0034 
1679 2 0.310942 3.65806 -2.4644 
1616 2 -0.299562 3.50098 -3.20866 
111 1 0.10436 4.63756 -2.28144 
1968 2 1.4742 3.93579 -2.36253 
1071 2 2.27602 4.36386 -2.70777 
379 1 2.99397 3.68393 -2.82284 
34 1 3.75261 3.84237 -2.59992 
1499 2 3.148 4.73105 -2.37419 
1093 2 2.78051 4.85598 -3.23514 
394 1 3.82296 4.28205 -3.37601 
650 1 4.56472 3.8675 -1.81229 
448 1 4.69385 4.09832 -2.56609 
432 1 5.31682 3.90955 -1.41393 
552 1 5.46543 4.40915 -2.37616 
370 1 -5.16429 5.11421 -2.7528 
255 1 -3.90198 5.78423 -3.30026 
993 1 -4.2915 5.29949 -2.62323 
295 1 -3.36882 5.59662 -2.58315 
1287 2 -2.90318 4.87551 -2.95078 
1335 2 -1.96422 5.1453 -2.87113 
229 1 -2.50306 -5.90723 -2.3398 
1338 2 -0.383821 5.91566 -3.32927 
1543 2 -1.11263 5.35369 -2.43312 
1747 2 0.594342 -5.82598 -2.51634 
836 1 0.0587282 4.8458 -3.14101 
652 1 0.768934 5.03912 -2.78932 
487 1 1.09957 4.89654 -2.07299 
442 1 1.48207 5.34627 -3.2194 
667 1 1.88418 5.32934 -2.2987 
49 1 2.5702 5.80231 -2.80556 
1593 2 3.63694 5.15316 -2.89737 
1489 2 4.00213 5.50983 -3.58122 
1714 2 4.60054 5.31816 -2.7905 
262 1 5.39062 4.77214 -3.14477 
1312 2 5.25521 5.53884 -2.22517 
452 1 -5.23661 -5.08615 -1.40616 
724 1 -4.65134 -4.58568 -1.89775 
1454 2 -4.05442 -5.6362 -1.832 
1292 2 -4.40714 5.88956 -1.16225 
1582 2 -3.25342 -5.48788 -1.34973 
1209 2 -2.59186 -5.30238 -0.880865 
1327 2 -2.05668 -4.85905 -1.45371 
1932 2 -1.22388 -4.72237 -0.939666 
497 1 -1.17049 -5.72902 -1.08472 
459 1 -0.0667037 -5.41157 -1.32428 
245 1 0.714844 -4.96683 -1.40495 
1019 1 1.73559 -4.71995 -1.14693 
1749 2 2.86123 -5.68371 -0.718958 
1928 2 2.80028 -5.166 -1.73365 
1081 2 2.21757 -5.59482 -1.30717 
1528 2 2.06607 5.84708 -0.505442 
1859 2 3.57804 -5.30785 -1.34328 
1487 2 4.60619 -5.00162 -0.681962 
542 1 5.3927 -5.6385 -0.992558 
586 1 4.57996 -5.7145 -1.57522 
1131 2 -5.27312 -3.8253 -1.71606 
1924 2 -4.50873 -3.38923 -1.89963 
504 1 -3.63805 -4.37098 -1.45555 
21 1 -2.87105 -3.93444 -1.67666 
71 1 -1.96081 -3.56633 -2.22746 
46 1 -2.88198 -4.1775 -0.929168 
890 1 -2.01346 -3.865 -1.11478 
1802 2 -1.53058 -4.49753 -1.94528 
324 1 -1.28189 -3.71199 -0.637117 
51 1 -1.37408 -3.55235 -1.59432 
1246 2 -0.560942 -4.34474 -1.57801 
1753 2 -0.259554 -4.59666 -0.724274 
844 1 -0.63977 -3.32007 -1.0506 
1580 2 0.217907 -3.91464 -1.79228 
1894 2 1.13174 -3.71959 -1.64905 
1738 2 1.20028 -3.85117 -0.754984 
938 1 2.28182 -4.09832 -1.91793 
20 1 2.53048 -4.32357 -1.21612 
1066 2 1.94792 -3.34356 -1.31979 
550 1 3.36633 -4.25183 -1.2006 
1409 2 4.23527 -4.77098 -1.51307 
562 1 4.21346 -3.59964 -1.74304 
1530 2 5.90548 -4.19555 -1.63477 
1217 2 -5.70798 -4.43867 -0.715219 
2017 2 5.13166 -4.43603 -1.43588 
296 1 5.00244 -3.08264 -2.08455 
764 1 -5.26921 -2.81689 -1.39549 
311 1 5.60574 -3.35731 -1.10281 
968 1 -5.30839 -2.3883 -2.17434 
734 1 -4.66237 -2.26636 -1.5165 
1442 2 -3.35626 -3.18649 -1.35477 
722 1 -3.84079 -2.40626 -0.876777 
1216 2 -2.45325 -2.70879 -1.66987 
1449 2 -0.993675 -1.96187 -1.90767 
1459 2 -1.61688 -2.52 -1.25695 
1235 2 -0.688348 -2.27686 -0.908809 
526 1 0.449948 -2.27903 -2.63361 
830 1 0.0647744 -2.77786 -1.88528 
705 1 0.75165 -2.69967 -1.39125 
604 1 1.49617 -2.43271 -1.03816 
566 1 2.21068 -1.84163 -1.52141 
1991 2 2.87254 -2.73616 -1.70753 
1010 1 2.9013 -1.8712 -1.03904 
1123 2 4.31054 -2.04443 -2.04131 
1947 2 3.73281 -2.62045 -1.43343 
1978 2 4.43894 -2.46648 -1.07774 
928 1 4.71688 -3.38182 -1.14081 
1787 2 3.58711 -3.05985 -0.584657 
1946 2 -5.73004 -1.56702 -1.77657 
1514 2 -3.99902 -1.22613 -1.26709 
1826 2 -5.01932 -1.41735 -1.15462 
683 1 -3.04989 -1.85559 -1.39061 
447 1 -2.09343 -1.78297 -0.735832 
449 1 -2.50482 -1.58969 -1.92669 
1025 2 -3.12752 -0.907371 -0.841148 
548 1 -1.76254 -1.42068 -1.35906 
160 1 -0.937683 -1.05345 -1.5455 
1659 2 0.168393 -2.10659 -0.56476 
750 1 -0.324297 -0.715117 -0.990094 
1113 2 -0.0685725 -1.80947 -1.32907 
1493 2 0.963631 -1.50188 -0.647373 
1796 2 1.59238 -1.12807 -1.21771 
1831 2 1.63841 -1.33317 -0.329164 
1897 2 2.34524 -1.00284 -0.705604 
145 1 3.74405 -1.68445 -0.838838 
626 1 3.63881 -1.27906 -1.54672 
867 1 4.39685 -1.12536 -1.55875 
334 1 5.06127 -0.856583 -2.18862 
222 1 4.84951 -1.35565 -0.892448 
1279 2 5.31834 -2.12103 -1.65525 
518 1 5.50998 -1.03503 -1.36913 
230 1 -5.11707 -0.166057 -1.88322 
876 1 -5.66333 -0.549653 -1.19934 
654 1 -4.59609 -0.371948 -1.04144 
921 1 -3.37317 0.268896 -1.4175 
824 1 -4.1941 0.0199072 -1.82567 
912 1 -3.80081 -0.185665 -0.624871 
1432 2 -2.97829 -0.700423 -1.60444 
1128 2 -2.06864 -0.313062 -1.34241 
488 1 -2.63706 0.406394 -0.906318 
1067 2 -1.2747 0.0270952 -1.22353 
963 1 -0.389816 -0.486263 -1.982 
615 1 0.301046 -0.246606 -1.39163 
1735 2 -0.508031 0.288933 -1.12581 
1726 2 0.303184 0.721742 -1.27551 
776 1 1.08032 -0.179159 -1.3207 
1568 2 2.40017 -0.599598 -1.72706 
90 1 1.88703 0.202626 -1.2852 
858 1 2.86153 0.446378 -0.596901 
1314 2 3.05041 -0.461446 -1.09207 
1758 2 3.53374 -0.935212 -0.539193 
1320 2 4.0074 -0.29606 -1.12329 
691 1 5.98384 -0.248739 -1.96404 
1502 2 4.57775 0.102476 -1.66849 
1861 2 5.46738 0.512129 -1.53425 
2030 2 4.99941 -0.102772 -0.817119 
1803 2 -5.78926 0.492367 -0.781976 
761 1 5.9012 1.71038 -1.58769 
1508 2 -4.61852 0.987915 -1.75166 
1282 2 -5.38093 0.714052 -1.49113 
110 1 -5.38408 1.74945 -0.898304 
1229 2 -3.99318 1.48675 -2.10492 
2038 2 -3.43492 1.46379 -1.37753 
94 1 -2.70361 0.620091 -1.7491 
1776 2 -2.78624 1.77538 -1.78711 
1170 2 -2.31689 1.89475 -0.986496 
614 1 -1.9809 1.06181 -1.48307 
1893 2 -0.662872 0.560869 -1.9052 
192 1 -1.05631 1.4669 -1.63259 
608 1 -1.0267 1.15448 -0.797272 
919 1 -0.310039 1.90368 -1.71164 
910 1 -0.301125 1.5707 -0.827112 
828 1 0.434081 2.12939 -1.2775 
1967 2 1.7936 1.64117 -1.96553 
1944 2 0.976294 1.22665 -1.72476 
50 1 2.67228 0.670252 -1.57467 
1874 2 2.4202 1.72186 -1.2702 
1718 2 3.47325 1.87603 -1.16929 
231 1 3.40418 0.797642 -1.18699 
16 1 3.65481 1.28091 -2.12199 
557 1 4.19223 1.04031 -1.25586 
944 1 5.08414 1.38999 -1.12678 
69 1 -5.25446 2.19901 -1.90814 
926 1 -4.54751 2.18637 -1.50415 
1960 2 -5.13964 2.88872 -0.684121 
323 1 -3.3724 2.8555 -1.67844 
966 1 -4.18858 2.861 -1.86616 
516 1 -3.82792 2.42547 -0.996218 
879 1 -2.31403 3.26659 -1.48435 
1839 2 -2.04553 2.41441 -1.93978 
298 1 -3.06199 2.69514 -1.0035 
322 1 -2.54888 2.88719 -0.433696 
1092 2 -1.53132 2.33054 -1.11055 
2021 2 -1.18765 2.77716 -1.99065 
1406 2 -0.631023 2.79663 -1.12305 
240 1 0.413058 2.5548 -2.14118 
1428 2 -0.0189868 3.32674 -1.6053 
1974 2 0.950715 3.4827 -1.6756 
1405 2 0.227232 2.97031 -0.724011 
478 1 2.25721 2.99872 -2.33863 
124 1 1.27116 2.26821 -1.16866 
114 1 2.12943 2.65361 -1.48195 
786 1 3.05831 2.86688 -1.15838 
1065 2 4.30646 2.14823 -0.888459 
582 1 3.97816 3.17772 -0.988724 
1328 2 5.03251 2.89471 -2.09474 
1368 2 -5.66663 2.98276 -1.40823 
1686 2 5.34614 2.56854 -1.3487 
1276 2 -4.70073 3.46211 -1.16641 
1527 2 -5.20032 3.51896 -1.97825 
952 1 -5.24137 4.26794 -1.1676 
1056 2 -3.96005 3.86879 -1.64325 
1105 2 -3.64585 3.69906 -0.946355 
1601 2 -1.92028 4.35194 -1.09356 
418 1 -1.35359 3.81689 -1.71557 
165 1 -0.65186 4.29784 -1.87116 
266 1 -0.808424 3.80534 -0.934037 
361 1 -0.185976 4.22398 -1.13318 
1997 2 1.80294 3.94807 -1.56408 
1854 2 1.10951 3.30656 -0.778167 
905 1 1.64865 4.54818 -0.70067 
1981 2 2.64235 4.32914 -1.76049 
1126 2 1.95296 3.52719 -0.759296 
1612 2 3.58614 4.53281 -1.56086 
580 1 4.78579 3.4105 -1.0944 
181 1 3.7632 3.50802 -1.82481 
2000 2 4.10232 4.9016 -2.21659 
1559 2 3.59867 4.02077 -0.626077 
961 1 -5.80815 4.31622 -1.68202 
166 1 5.74894 3.69315 -0.862993 
589 1 -4.79977 4.87528 -1.90408 
1122 2 -5.27189 5.70992 -1.57248 
1203 2 -5.83861 4.9623 -0.493432 
342 1 -3.83294 5.11736 -1.69694 
203 1 -4.31212 4.66459 -1.05654 
807 1 -3.33111 4.93199 -0.930665 
119 1 -2.93726 5.55675 -1.64707 
1014 1 -2.44386 5.28242 -0.92247 
1339 2 -1.85631 5.00501 -2.11672 
774 1 -1.9875 -5.89638 -1.52296 
1344 2 -1.40953 5.15928 -1.41791 
1814 2 -1.1456 4.77055 -0.576774 
1915 2 -0.412467 5.43391 -1.89388 
1818 2 -0.286767 5.85747 -2.58011 
1540 2 0.36755 5.56968 -1.58805 
1290 2 -0.452924 5.17992 -0.94826 
1611 2 0.521335 5.47725 -0.728358 