ITEM: TIMESTEP
25600
ITEM: NUMBER OF ATOMS
2048
ITEM: BOX BOUNDS pp pp pp
-5.9409200834709388e+00 5.9409200834709388e+00
-5.9409200834709388e+00 5.9409200834709388e+00
-5.9409200834709388e+00 5.9409200834709388e+00
ITEM: ATOMS id type x y z 
825 1 -5.49642 5.65571 -4.46587 
1390 2 -5.51062 -4.65157 -5.69876 
342 1 -4.76305 -5.65198 -5.26193 
346 1 -3.93552 -5.2051 -5.43157 
412 1 -4.47037 -5.14918 5.92093 
508 1 -2.87753 -5.16354 -4.80021 
91 1 -2.36914 -4.52441 -5.63658 
3 1 -3.22961 -4.80965 -5.71941 
1301 2 -3.06359 -5.71072 5.82652 
1035 2 -1.08729 -5.12641 5.53196 
1551 2 -0.96924 -5.45281 -5.38047 
1038 2 -1.67728 -5.74193 -4.85777 
1526 2 -2.01381 -5.51952 -5.87798 
1542 2 -0.371662 -4.92229 -5.82574 
1236 2 0.379775 -4.74618 -5.27295 
648 1 0.524374 -5.63212 -5.86267 
350 1 0.826296 5.8223 -5.03698 
237 1 1.6174 -5.66658 -5.09529 
442 1 2.40119 -5.17439 -5.33511 
425 1 2.08767 -4.92972 5.82502 
1239 2 3.46253 5.87868 -5.19244 
931 1 3.53192 -5.04368 -4.25809 
1559 2 5.8439 -5.19839 -5.2775 
1227 2 5.56493 -4.90288 5.82427 
1846 2 4.34063 -5.70287 -4.7522 
1192 2 5.04927 -5.47666 -5.27695 
684 1 -5.49609 -3.68838 -5.12138 
1467 2 -4.62078 -4.29995 -5.44607 
353 1 -4.57155 -3.60679 -4.64862 
1472 2 -3.7392 -4.25426 -5.06236 
1249 2 -3.27755 -3.76361 -5.55567 
1617 2 -1.9823 -3.84789 -4.51064 
1270 2 -2.57317 -3.66001 -5.14407 
1710 2 -1.81491 -3.29771 -5.6448 
530 1 -1.1706 -4.47425 -5.08317 
1004 1 -1.45604 -4.24034 -5.89751 
202 1 -0.471562 -4.00485 -5.36896 
414 1 -0.00853077 -3.45583 -5.87391 
1 1 0.923379 -3.37484 -5.16175 
1984 2 1.19821 -4.25734 -5.44397 
1334 2 -0.0990905 -4.42564 5.30527 
1260 2 2.11962 -4.47384 -4.6667 
1678 2 2.87762 -3.93307 -5.03543 
1319 2 2.76473 -3.61487 -5.77029 
1483 2 4.60693 -3.36235 -4.98793 
1887 2 3.69094 -3.54284 -5.33531 
481 1 3.88974 -4.36498 5.71667 
180 1 4.17646 -4.57921 -5.4163 
57 1 -5.4622 -3.22203 5.71464 
511 1 5.61683 -3.97325 -5.40985 
223 1 4.69534 -4.136 5.76189 
1937 2 -5.55046 -2.80497 -4.64991 
1745 2 -5.15485 -2.22892 -5.34402 
965 1 -2.9881 -2.7551 -4.72392 
1588 2 -4.2447 -2.18038 -4.83864 
150 1 -3.87669 -3.10628 -5.10344 
402 1 -3.4765 -2.72332 -5.81234 
664 1 -2.77852 -2.47022 -5.61405 
151 1 -2.12422 -2.3966 -4.91159 
1630 2 -1.24293 -3.2664 -4.81974 
2009 2 -0.72694 -2.94665 -5.28993 
1602 2 -0.397564 -3.0274 -4.40552 
1006 1 -1.84672 -2.02215 -5.53028 
595 1 -1.00474 -1.94955 -5.10867 
1370 2 -0.0481143 -2.52626 -5.50442 
1581 2 0.385182 -2.61281 -4.73616 
738 1 1.72201 -2.76995 -5.71121 
1555 2 1.06805 -2.2213 -5.0994 
819 1 2.25093 -3.0236 -4.87783 
122 1 2.61518 -2.64449 -5.48186 
547 1 3.22525 -2.65133 -4.85813 
33 1 4.06269 -2.60997 -4.63849 
1705 2 4.28914 -3.2457 -5.81675 
2032 2 5.34635 -3.01301 -5.06081 
1491 2 5.89334 -2.53575 -5.51028 
609 1 -5.39312 -0.971865 5.88201 
205 1 -4.6653 -1.09853 -4.64131 
562 1 -5.54361 -1.37184 -4.84533 
1924 2 -3.90148 -1.67994 -5.44421 
771 1 -4.03571 -0.626701 -5.72818 
1867 2 -3.46259 -1.92251 -4.36276 
1271 2 -3.13157 -1.52558 -5.18515 
1243 2 -2.37708 -1.39273 -4.7561 
1154 2 -1.67266 -0.633345 5.62247 
1171 2 -2.66865 -1.13941 -5.80424 
830 1 -0.700538 -1.56374 -5.75489 
1414 2 -0.987637 -0.617937 -5.55622 
35 1 0.111418 -1.33117 -5.41355 
674 1 0.771655 -1.27267 -4.68415 
788 1 0.596359 -0.786354 5.85148 
427 1 1.87492 -0.807639 -4.7545 
404 1 1.18896 -0.755207 -5.27858 
1881 2 1.38634 -1.63795 -5.8045 
1401 2 3.2026 -1.27253 -5.39355 
1326 2 2.35266 -1.44566 -5.67456 
1533 2 2.00516 -1.75871 -5.07112 
1332 2 3.71748 -1.7066 -4.2166 
706 1 4.31194 -2.16123 -5.30893 
1676 2 4.10198 -1.24409 -4.91943 
277 1 5.26492 -1.80828 -5.08345 
999 1 5.67603 -1.35394 -5.74096 
2036 2 -5.70062 0.0497471 -5.69165 
1615 2 -4.91722 0.512412 5.73276 
179 1 -4.83953 -0.922946 -5.4062 
1110 2 -4.88086 0.0681244 -5.21855 
1498 2 -3.40942 0.77672 -5.26025 
833 1 -3.01124 -0.199123 -5.35461 
374 1 -2.28752 -0.124161 -4.89038 
348 1 -2.73042 0.176397 5.73346 
212 1 -1.98766 0.222834 -5.7964 
827 1 -1.43267 0.340711 -5.0884 
769 1 -0.653775 0.637699 -4.93692 
1500 2 -0.0716181 -0.158392 -5.53461 
1804 2 -0.317112 -0.635997 -4.93961 
1963 2 1.82963 0.396034 -5.14845 
1570 2 0.553818 0.0704078 -4.98778 
1644 2 1.32258 -0.0217491 -4.48296 
768 1 2.12122 -0.445318 -5.39351 
916 1 2.8097 -0.434739 -4.72543 
31 1 2.6367 -0.0921795 -5.97891 
866 1 3.99575 0.264775 -5.80224 
581 1 3.30927 -0.171815 -5.51633 
560 1 4.51203 0.0861609 -4.98634 
1030 2 4.65751 -0.865349 -5.50846 
1725 2 5.45658 -0.114392 -5.89239 
1982 2 5.4741 -0.538331 -5.21052 
109 1 -5.13574 1.5276 -5.79394 
715 1 -5.65251 0.934283 -5.16159 
656 1 -4.3377 1.83791 5.9062 
697 1 -3.05735 1.63853 -4.55297 
689 1 -4.03361 1.57388 -5.02952 
1343 2 -2.64124 0.775487 -4.72138 
1063 2 -2.18965 1.21571 -5.50203 
1830 2 -1.85949 0.807351 -4.16163 
1256 2 -1.6213 1.35612 -4.92442 
1945 2 -0.727796 1.8834 -5.21174 
1058 2 -1.50081 1.73044 -5.66074 
254 1 0.116672 1.07226 -4.8799 
482 1 0.530974 1.37175 -5.50321 
401 1 -0.228701 0.97738 -5.64945 
63 1 1.46913 1.56677 -5.30863 
80 1 0.909215 1.10761 -4.80163 
1021 1 1.74966 1.34611 -4.56284 
1502 2 2.7048 0.868635 -5.36355 
380 1 2.14305 1.97964 -5.42779 
1180 2 3.50241 1.12296 -5.46608 
1777 2 4.20313 1.01122 -4.333 
1953 2 4.35609 1.44149 -5.17872 
299 1 5.26802 0.602178 -5.19464 
469 1 5.85256 1.14604 5.71283 
1762 2 4.63566 1.82517 -5.97029 
1717 2 -5.40134 2.63634 5.66431 
1810 2 -5.80305 2.22728 -5.64441 
1938 2 -4.923 2.31207 -4.66337 
752 1 -3.51657 2.17447 -5.70966 
1431 2 -3.83851 2.91278 -5.2368 
1800 2 -4.88481 2.71918 -5.54176 
1482 2 -3.07259 3.07922 -4.91423 
491 1 -2.77239 2.19587 -5.06274 
982 1 -2.22962 2.15725 -4.40714 
815 1 -1.89904 2.49208 -5.11047 
619 1 -1.09328 2.96817 -5.38488 
593 1 -1.28653 2.49091 -4.33703 
885 1 -0.555815 2.91155 -4.67234 
1130 2 0.107143 2.24685 -5.20891 
1628 2 1.66948 2.91644 -5.45084 
1979 2 0.907955 2.43847 -4.94021 
2020 2 2.09984 2.7563 -4.68448 
1322 2 1.70671 3.21178 5.70452 
382 1 2.71512 2.3273 -5.93769 
1342 2 2.4882 3.31571 -5.50345 
118 1 1.90652 2.19569 5.48436 
895 1 3.27276 2.29636 -5.18815 
574 1 4.46898 2.66473 -5.18237 
882 1 5.0108 2.61439 -4.54575 
1068 2 5.41661 2.14515 5.8129 
188 1 5.55019 3.09728 -5.14828 
676 1 -4.82081 3.97511 -5.50585 
1073 2 -5.81837 4.41172 -4.67193 
762 1 -5.74762 3.44505 -5.73694 
396 1 -4.95558 3.96464 5.62863 
1716 2 -3.69037 3.47478 5.9674 
923 1 -4.1518 3.88811 -4.88433 
755 1 -4.01299 4.42255 -5.7837 
989 1 -2.72336 4.46383 -4.57111 
1476 2 -2.78526 3.53393 -5.56396 
250 1 -3.23375 4.29796 -5.1989 
221 1 -1.80412 4.73948 -4.62706 
1934 2 -1.29576 4.01324 -5.54163 
1378 2 -1.09331 3.86124 -4.57793 
1175 2 -2.0554 3.57174 -5.15675 
852 1 0.546012 3.7307 -5.53005 
1596 2 0.165558 4.50552 -4.81922 
1336 2 -0.607725 4.30664 -5.11741 
56 1 1.15523 3.55537 -4.64876 
884 1 1.15404 4.10481 5.7831 
777 1 1.46092 3.91714 -5.38557 
653 1 2.43196 4.09175 -4.84727 
501 1 2.21823 4.48219 -5.73672 
1146 2 3.08997 3.18521 -4.75866 
407 1 3.15166 4.09882 -4.38803 
1640 2 4.04544 3.72822 -5.27958 
1933 2 3.3415 3.64277 -5.71739 
1779 2 5.37542 3.96673 -4.78649 
1618 2 5.62744 4.36135 -5.49328 
1376 2 4.88039 4.28116 -5.53442 
1088 2 -4.91764 4.68316 -4.82576 
1417 2 -5.5638 4.80905 -5.48374 
699 1 -5.55142 5.76585 -5.30181 
1365 2 -4.59804 5.30044 -5.66667 
1510 2 -3.45381 5.61768 -5.27969 
1138 2 -3.87585 5.75905 5.81445 
1127 2 -2.55338 5.9 -5.22938 
751 1 -1.39034 5.22739 -5.20445 
797 1 -0.917636 5.5677 -5.81422 
340 1 -0.106095 5.70777 -5.32815 
638 1 0.161571 5.46897 -4.44142 
577 1 -0.61307 5.25215 -4.78212 
1480 2 0.794264 4.89845 -5.39113 
1093 2 1.92364 4.87353 -4.39377 
1847 2 2.36748 5.52954 -5.38625 
1354 2 1.96516 -5.88634 5.05475 
18 1 3.10547 4.55967 -5.24159 
262 1 3.90674 4.71898 -4.70983 
1955 2 2.79436 -5.87232 5.80074 
437 1 4.02671 5.10053 -5.75565 
318 1 4.75139 5.53566 5.69336 
435 1 5.7855 5.80131 5.84697 
1411 2 -5.07623 -4.81562 -4.85803 
1612 2 -5.72114 -5.20716 -4.33821 
1203 2 -4.92678 -5.13435 -3.85811 
2000 2 -4.33908 -4.69102 -4.41846 
274 1 -3.67334 -5.61157 -4.54877 
453 1 -3.81671 5.8938 -3.6407 
5 1 -2.99016 -5.40725 -3.99894 
467 1 -1.8774 -4.79222 -4.70976 
1046 2 -2.863 -4.36834 -3.6982 
1353 2 -0.9635 -5.73687 -4.42161 
765 1 -1.34175 -4.75175 -4.03311 
107 1 -0.658074 -4.78768 -3.48121 
1029 2 -0.280834 -5.24758 -4.70978 
1199 2 0.972696 -5.30724 -3.49737 
1928 2 -0.130754 -5.606 -3.73359 
1571 2 0.570006 -5.21277 -4.31589 
1563 2 1.61727 -4.99913 -3.96359 
428 1 1.04712 5.63349 -4.19293 
673 1 2.75495 -5.36199 -4.56351 
959 1 1.91069 -5.88032 -4.32959 
64 1 3.20698 -5.6001 -3.65364 
242 1 4.33849 -4.64756 -4.64202 
19 1 4.13759 -5.10255 -3.74552 
1931 2 5.27002 -5.62626 -4.40481 
131 1 4.94164 -4.71668 -3.9109 
339 1 5.66383 -4.45265 -3.67309 
373 1 -5.66077 -3.96642 -4.44262 
75 1 -4.85493 -3.77373 -3.97824 
251 1 -5.40867 -4.21725 -3.34368 
218 1 -3.67289 -3.4957 -4.18482 
1425 2 -3.70165 -4.6918 -3.84972 
465 1 -4.10633 -3.93039 -3.53273 
1773 2 -3.05153 -4.21635 -4.58597 
196 1 -2.96923 -3.30856 -3.84054 
1197 2 -1.95001 -4.19929 -3.37812 
1711 2 -1.28851 -3.62134 -3.92318 
1783 2 -1.84174 -4.39028 -2.51671 
227 1 0.188203 -3.83762 -4.75399 
1079 2 -1.02286 -3.98038 -3.00283 
855 1 -0.668778 -4.35448 -4.43352 
416 1 0.14164 -4.3078 -4.07521 
938 1 0.940911 -3.94371 -4.22154 
1486 2 1.25899 -4.79608 -4.77225 
782 1 1.58036 -3.49372 -4.58188 
20 1 1.90264 -3.58176 -3.73374 
661 1 1.27383 -4.07267 -3.3907 
1198 2 2.48652 -4.55711 -3.93298 
1019 1 3.09218 -3.35633 -3.34492 
1528 2 3.35211 -4.08194 -4.44715 
1592 2 4.03524 -3.64165 -4.34379 
809 1 5.3467 -4.36765 -4.56214 
1995 2 4.85678 -3.86098 -3.25227 
280 1 4.91496 -4.28395 -5.34497 
1657 2 5.75888 -3.41834 -3.11541 
1750 2 4.87025 -3.55337 -4.14622 
1465 2 -5.35231 -3.09631 -3.44127 
1664 2 -4.82901 -2.61646 -4.19859 
1902 2 -3.83212 -2.53394 -3.76697 
1911 2 -3.77658 -2.84169 -2.84959 
1908 2 -3.26374 -2.14607 -3.27616 
622 1 -2.24993 -2.82238 -4.06121 
753 1 -1.53297 -2.65364 -3.598 
236 1 -1.49322 -2.45795 -4.5852 
677 1 -0.640608 -2.4543 -3.36488 
313 1 -0.255168 -1.76991 -4.5581 
1991 2 -0.310369 -3.53248 -3.56686 
1848 2 0.433689 -2.99439 -3.7239 
599 1 -0.835542 -2.18324 -4.14099 
1580 2 1.08328 -2.53327 -4.16854 
1698 2 1.6709 -2.2456 -4.51602 
1263 2 2.3785 -2.51641 -3.38093 
136 1 2.66486 -3.2773 -4.13957 
1001 1 4.13853 -3.01036 -3.07615 
1946 2 2.65952 -2.11391 -4.16603 
639 1 3.48938 -2.8312 -3.88884 
385 1 4.38264 -2.59931 -3.76771 
475 1 4.96176 -2.24862 -4.38948 
1871 2 5.68279 -3.199 -4.01736 
550 1 5.37967 -2.21498 -3.64537 
784 1 -4.99747 -1.53192 -4.20485 
1350 2 -5.76586 -0.755117 -3.97203 
161 1 -4.02176 -1.15118 -3.89277 
592 1 -4.52089 -1.69012 -3.33732 
701 1 -3.80781 -0.73712 -4.78459 
948 1 -3.22625 -1.02904 -3.78808 
1097 2 -2.52959 -1.82592 -3.87533 
1345 2 -1.65799 -1.53076 -4.23101 
451 1 -2.18397 -0.536605 -4.03347 
1355 2 -1.15556 -1.00993 -4.65932 
1573 2 -1.24583 -1.34089 -3.61237 
1975 2 -1.88773 -0.988125 -5.42075 
1296 2 -2.03222 -1.87619 -3.25261 
657 1 0.338112 -1.7168 -4.05072 
1870 2 -0.45246 -0.897125 -3.90491 
421 1 1.54665 -1.39596 -3.99751 
287 1 0.95035 -1.67854 -3.52318 
705 1 1.99009 -1.45301 -3.20811 
377 1 2.8724 -1.03406 -3.18152 
1738 2 3.24808 -1.92983 -3.59062 
691 1 2.32444 -1.0454 -4.0978 
1363 2 2.81479 -1.67014 -4.72314 
1645 2 4.34583 -1.51558 -3.59108 
403 1 -5.95879 -1.85731 -4.31128 
1083 2 4.74239 -1.20226 -4.36394 
1775 2 5.23742 -1.25547 -3.54292 
1163 2 5.42836 -0.808644 -4.37501 
2048 2 -5.73462 -0.318315 -4.77107 
1792 2 -4.93022 -0.12023 -4.33176 
1111 2 -4.21864 0.258293 -4.65746 
1346 2 -3.49527 0.334335 -4.22172 
1754 2 -4.24881 -0.185088 -3.78424 
505 1 -2.95559 -0.608562 -4.49617 
1876 2 -2.5857 0.416852 -3.87724 
214 1 -1.4954 -0.0869436 -4.34539 
789 1 -0.743466 0.270415 -4.19913 
704 1 -0.695804 0.0106443 -3.28154 
1223 2 0.246678 -0.374318 -4.14557 
594 1 0.0729499 0.268865 -3.15884 
447 1 0.881351 0.605789 -3.30136 
1673 2 1.01849 -0.350152 -3.70029 
1832 2 2.01212 -0.0848327 -3.72356 
1568 2 1.75477 -0.485754 -2.87418 
640 1 3.37577 -0.655936 -3.87459 
1314 2 2.45757 0.555719 -4.7248 
1952 2 2.80565 0.348443 -3.96483 
758 1 3.78208 -0.324014 -4.58808 
1470 2 3.66373 0.606931 -3.72607 
700 1 4.06908 -0.676845 -3.18289 
42 1 4.41902 -0.343108 -3.84475 
334 1 4.94069 0.21126 -4.44682 
872 1 5.43545 0.22401 -3.69943 
32 1 5.85429 0.525243 -4.37321 
190 1 -4.76933 1.2456 -5.04312 
1728 2 -5.04858 1.94065 -3.94225 
1654 2 5.90833 1.58937 -3.85297 
338 1 -4.30846 1.15193 -4.20118 
903 1 -3.62462 1.47049 -3.90336 
2001 2 -1.04463 0.993393 -3.63328 
1015 1 -2.53472 1.56473 -3.85029 
1298 2 -0.898332 1.46524 -4.41528 
310 1 -1.66479 1.95746 -3.47275 
1962 2 -1.12149 0.822072 -2.74978 
1884 2 0.420948 2.02186 -4.53087 
842 1 0.0689603 0.644947 -4.13051 
1769 2 0.630248 1.87627 -3.69599 
1364 2 -0.169345 1.63694 -4.02993 
1999 2 -0.291217 1.36873 -3.15489 
517 1 0.918417 0.973161 -4.02746 
760 1 1.84291 0.956795 -3.70553 
1696 2 3.38067 0.806155 -4.64447 
551 1 2.64058 1.34737 -3.97472 
731 1 3.46798 1.55791 -3.39515 
621 1 4.11304 1.68587 -2.91031 
1172 2 4.45792 0.756174 -3.42742 
1877 2 5.23383 1.92178 -5.36624 
1412 2 5.07709 1.50304 -4.61148 
1861 2 5.10142 1.24298 -3.84107 
1403 2 -5.87281 1.90363 -4.76438 
45 1 -5.39424 3.40764 -4.85752 
1512 2 -4.18641 2.5648 -4.58351 
1959 2 -3.35754 2.65174 -4.25626 
1839 2 -4.15138 2.28109 -3.72295 
1415 2 -2.28259 3.30872 -4.46848 
1485 2 -2.56528 2.87021 -3.71632 
494 1 -0.916611 2.1537 -3.60255 
719 1 -0.594098 2.44837 -2.90572 
208 1 -0.426537 2.74425 -3.89257 
76 1 0.114808 3.40099 -4.83868 
478 1 0.290548 2.80001 -3.4572 
1653 2 1.35714 2.18115 -4.20393 
709 1 0.504839 3.2346 -4.13843 
1967 2 1.32531 1.86836 -3.18478 
1461 2 2.05925 2.19661 -3.75947 
1214 2 2.75493 2.75251 -4.0655 
1105 2 2.97184 2.4672 -3.11489 
1011 1 2.61189 1.91537 -4.65746 
2039 2 3.48026 2.77052 -3.69864 
894 1 3.42851 1.74793 -4.13331 
726 1 3.8642 2.13674 -4.62571 
204 1 -5.91839 2.90611 -4.37543 
631 1 4.28466 2.09794 -3.83212 
1278 2 -5.13216 4.35695 -4.0462 
446 1 -5.27712 2.90868 -3.77849 
1439 2 -5.52347 4.04714 -3.27771 
1636 2 -4.40773 4.45861 -3.38756 
369 1 -4.83567 3.47177 -4.2634 
323 1 -3.56925 3.89525 -4.29405 
276 1 -2.02124 4.45718 -3.83005 
17 1 -1.12945 4.56715 -3.19171 
1142 2 -1.67895 3.34791 -3.9179 
1692 2 -0.885877 3.69534 -3.66881 
361 1 -0.651718 4.46028 -2.35376 
1607 2 0.0865558 3.94754 -3.51745 
1372 2 -0.22064 4.18626 -4.14871 
2040 2 0.788662 4.57353 -3.94214 
448 1 1.92861 3.6481 -4.21239 
1033 2 1.84546 4.54687 -3.69305 
1668 2 1.07242 4.11584 -3.28096 
256 1 2.75799 3.67803 -3.80061 
394 1 1.24521 3.12621 -3.7342 
1274 2 3.85977 3.13742 -4.51303 
775 1 3.76352 4.19114 -3.98939 
1562 2 4.52629 3.6127 -4.3638 
432 1 4.82345 4.66786 -4.17904 
1349 2 5.77194 3.75562 -3.9139 
1977 2 4.96311 3.444 -3.62989 
662 1 -4.88306 5.55379 -3.39181 
946 1 -5.60643 5.15491 -3.67857 
443 1 -5.72892 4.97922 -2.84066 
1413 2 -3.47095 5.12731 -4.39065 
805 1 -4.60137 5.82647 -4.19396 
1670 2 -4.34852 4.84108 -4.23808 
1527 2 -4.07963 5.09306 -4.94582 
1072 2 -3.52372 4.75449 -3.58144 
1048 2 -2.68183 5.56866 -4.42862 
1757 2 -2.58564 5.27569 -3.45538 
871 1 -1.07469 4.89456 -4.09322 
1575 2 -1.89728 5.78434 -4.17773 
1191 2 -1.73855 5.46565 -3.16089 
836 1 -0.297777 5.19615 -3.88038 
123 1 0.489019 5.286 -3.42954 
612 1 -0.181744 4.8631 -3.15316 
1593 2 1.16264 4.55382 -4.63174 
41 1 1.07702 5.08989 -2.85619 
1013 1 1.58 5.58779 -3.42864 
1499 2 2.67266 4.9739 -4.03396 
1042 2 2.59942 4.57861 -3.18051 
1854 2 3.34103 5.03246 -3.36196 
1875 2 2.9013 5.38006 -4.62033 
1764 2 3.67618 5.71585 -4.37002 
1318 2 4.05899 5.32552 -3.68472 
166 1 4.65173 5.09283 -5.13171 
473 1 5.40324 5.42844 -5.32398 
835 1 5.59201 5.20415 -4.32359 
1090 2 4.61634 5.86658 -4.15376 
802 1 -5.56824 -4.66385 -2.50892 
1418 2 -5.37155 -5.46966 -3.14831 
1534 2 -3.46261 -4.86437 -2.93063 
1604 2 -4.58424 -5.62458 -2.60659 
1272 2 -4.24821 -5.11814 -3.31909 
1261 2 -3.75612 -5.21255 -2.19353 
147 1 -2.13209 -5.15614 -3.83217 
1008 1 -2.95706 -5.63288 -3.18103 
1285 2 -2.95178 -4.93239 -2.13059 
497 1 -2.05441 -5.38292 -3.03401 
902 1 -1.22362 -5.1766 -2.90092 
326 1 -1.60832 -5.59183 -2.15157 
1503 2 0.286488 -5.71458 -2.89937 
459 1 -0.210884 -4.81862 -2.74204 
1338 2 1.4223 -5.44669 -2.79871 
667 1 3.02703 5.86549 -2.85265 
1081 2 2.31814 -5.40806 -2.40635 
1828 2 1.9014 -5.03879 -3.23891 
2004 2 2.66762 -4.73495 -3.01817 
847 1 4.50811 -5.66483 -2.20281 
586 1 3.85477 -5.68166 -3.0853 
955 1 4.64545 -5.2274 -3.00944 
1126 2 5.68613 -5.72819 -3.51795 
284 1 5.49118 -4.83894 -2.9131 
1817 2 -5.38348 -3.4612 -2.62198 
798 1 -4.80732 -4.5761 -1.97733 
2010 2 -4.64557 -3.15642 -2.40759 
273 1 -4.68085 -4.29193 -2.86687 
504 1 -3.97395 -4.03699 -2.46308 
1548 2 -2.66582 -4.51035 -2.81338 
524 1 -3.29947 -3.6092 -3.08128 
1394 2 -2.27635 -4.91411 -1.67487 
1477 2 -0.885713 -4.03604 -2.30884 
1231 2 -0.0461297 -3.64867 -2.74875 
1753 2 -0.256064 -4.2104 -1.65609 
1457 2 0.666536 -3.24927 -2.9107 
249 1 0.480248 -4.46401 -3.28695 
85 1 0.801217 -4.62418 -2.3894 
981 1 1.55958 -4.28743 -2.61129 
2019 2 3.21773 -4.32779 -3.56654 
328 1 2.23113 -3.76667 -2.91571 
522 1 3.07442 -3.70814 -2.56042 
1765 2 3.54195 -4.76437 -2.79269 
1232 2 3.9317 -4.03016 -3.58074 
1737 2 4.2373 -4.33472 -2.76512 
321 1 3.90463 -3.75204 -1.62897 
1836 2 5.06217 -4.00138 -2.29531 
636 1 -5.52548 -2.0865 -3.46262 
968 1 -5.47269 -2.38637 -2.07375 
734 1 -4.72889 -2.23684 -1.68408 
1545 2 -4.4397 -2.89833 -3.24421 
1442 2 -4.17302 -3.16375 -1.7684 
1478 2 -3.22935 -2.79321 -2.01965 
1781 2 -1.80589 -2.27734 -2.18237 
1537 2 -2.65715 -2.39848 -2.67251 
269 1 -2.37267 -3.27046 -3.15705 
411 1 -1.55578 -3.03775 -2.76474 
844 1 -0.747184 -2.89778 -2.47022 
597 1 0.205291 -2.21151 -3.39858 
388 1 0.0329221 -2.41447 -2.46335 
1894 2 1.39896 -2.92673 -3.13707 
1923 2 2.10224 -2.80843 -2.62951 
1947 2 3.02786 -2.38648 -2.70826 
1787 2 3.63671 -2.26905 -2.09904 
1066 2 2.74658 -2.86332 -2.03704 
100 1 3.82267 -3.26224 -2.32866 
914 1 5.06572 -2.66165 -3.0047 
1167 2 4.47974 -2.01311 -2.2061 
140 1 5.8648 -2.3309 -2.7689 
471 1 -4.90828 -2.07465 -2.69974 
1826 2 -5.02421 -0.59909 -3.47973 
1128 2 -5.29195 -1.17855 -2.25245 
917 1 -3.71561 -1.44779 -2.91304 
344 1 -4.20098 -1.92378 -2.34127 
2035 2 -4.68027 -0.754591 -2.68551 
848 1 -2.13564 -0.758522 -3.24538 
117 1 -2.91079 -0.862272 -2.96288 
1456 2 -1.4616 -1.81392 -2.73561 
499 1 -2.02436 -1.05759 -2.39684 
1635 2 0.131154 -0.913253 -3.31296 
1517 2 -0.611789 -1.44295 -3.03993 
1682 2 0.0737668 -1.38007 -2.4348 
1086 2 -0.760927 -1.86864 -2.08781 
998 1 1.048 -2.00526 -2.72805 
566 1 1.4786 -2.35367 -1.48071 
1057 2 0.842974 -0.765963 -2.89978 
199 1 1.72215 -1.83175 -2.31446 
867 1 2.60625 -1.5166 -2.41951 
116 1 3.4079 -1.05275 -2.4889 
1259 2 3.9709 -1.88661 -2.97169 
198 1 4.83869 -0.62489 -2.4978 
629 1 4.24344 -1.04694 -2.12568 
1634 2 -5.75764 -1.01521 -3.13831 
846 1 5.47107 -0.364399 -1.95899 
1641 2 4.91729 -1.72039 -2.90899 
1299 2 5.57337 -1.3911 -2.49035 
278 1 -5.16762 0.862465 -4.14081 
900 1 -5.67595 0.248172 -3.39318 
297 1 -5.23894 0.0707459 -2.48802 
1206 2 -4.01115 -0.354815 -2.83928 
824 1 -4.89919 0.523692 -3.19059 
1184 2 -3.38786 -0.387792 -2.19298 
1736 2 -3.45219 -0.0782959 -3.3548 
1550 2 -1.9605 0.508058 -3.23755 
1104 2 -2.6043 0.0553411 -2.77011 
615 1 -1.3644 -0.331993 -3.47008 
886 1 -1.20762 -0.617367 -2.62131 
1643 2 -1.5259 0.271959 -2.27707 
776 1 -0.448692 -0.384764 -2.43375 
963 1 -0.49812 -0.76282 -1.68901 
121 1 0.343155 -0.0341791 -2.22488 
749 1 1.07139 0.205183 -2.47625 
50 1 1.63923 0.188897 -1.67955 
1916 2 2.63357 -0.220975 -2.22415 
1529 2 2.74286 0.0593991 -3.09129 
1505 2 3.24627 -0.542542 -1.18899 
2008 2 3.55844 0.212995 -2.86733 
1468 2 3.62412 -0.124239 -2.0522 
1220 2 4.26641 0.330878 -2.38373 
125 1 4.98589 -0.335698 -3.23483 
241 1 5.83198 -0.151571 -2.67507 
2030 2 5.28879 0.687696 -2.11922 
1320 2 5.84926 1.26062 -3.01525 
1803 2 -5.31846 1.70092 -3.15078 
230 1 -4.04995 0.813069 -3.30036 
1720 2 -4.38115 1.78369 -3.08961 
613 1 -3.41267 0.683325 -2.6011 
1092 2 -3.67449 1.92239 -2.74749 
1282 2 -4.14029 1.49868 -1.99891 
164 1 -3.10677 1.27661 -3.33622 
686 1 -2.28537 1.49418 -2.86735 
489 1 -2.66514 0.978712 -2.2153 
585 1 -1.90176 1.22339 -1.96756 
301 1 -1.32201 1.80294 -2.57789 
823 1 -0.31936 2.06449 -2.10342 
1054 2 -0.229574 1.08344 -2.37343 
1050 2 0.668671 1.05615 -2.09449 
1436 2 -0.656765 0.541866 -2.01162 
408 1 1.77991 0.706961 -2.69518 
1642 2 0.543306 1.42835 -3.01353 
1158 2 1.57714 1.61987 -2.37674 
1297 2 1.51746 1.07188 -1.37557 
90 1 2.6237 1.05152 -2.97328 
232 1 2.50763 0.745717 -2.11988 
171 1 3.4702 1.19752 -2.5026 
243 1 3.3448 0.923865 -1.62472 
944 1 4.20447 1.33565 -2.0287 
702 1 4.86913 1.97148 -3.09769 
1361 2 5.0678 0.824022 -2.89264 
351 1 5.62929 2.19012 -2.37694 
811 1 5.82587 2.60277 -3.52943 
926 1 -4.63965 3.05557 -3.33307 
298 1 -5.5848 2.65682 -2.78603 
381 1 -3.49903 3.32431 -2.9856 
761 1 -4.58079 2.82287 -2.51348 
1268 2 -1.88217 2.99469 -3.194 
1794 2 -3.40134 2.49533 -3.42471 
1689 2 -2.72244 2.42288 -2.77398 
1625 2 -1.19468 3.20055 -2.94899 
1304 2 -1.66425 2.68164 -2.33794 
1247 2 -0.907427 3.02389 -2.06734 
561 1 0.227823 2.54143 -2.72016 
843 1 0.984294 2.44557 -2.14445 
240 1 0.399691 2.06225 -1.72897 
552 1 1.15892 2.84865 -2.892 
896 1 2.09125 3.2257 -3.3161 
1825 2 2.87867 2.01079 -2.30438 
1994 2 2.18927 1.94433 -2.85986 
937 1 2.8739 3.39856 -2.74018 
828 1 2.58707 3.0496 -1.994 
1786 2 3.79095 2.63268 -2.75339 
1522 2 4.1113 3.20108 -3.54554 
1686 2 4.42032 2.73126 -2.08565 
1026 2 4.6885 3.09569 -2.85939 
7 1 5.10134 2.3683 -3.72107 
1554 2 5.64873 3.56186 -2.8909 
1333 2 -4.75677 3.89891 -2.69173 
1811 2 -5.56418 3.63948 -2.37688 
1971 2 -4.08081 3.91042 -2.0041 
69 1 -4.02086 3.41217 -3.82726 
1662 2 -3.81731 4.33622 -2.77042 
1287 2 -3.28747 4.24679 -1.99724 
772 1 -2.77983 3.63967 -2.88445 
16 1 -2.93519 3.16806 -2.02163 
460 1 -2.90056 3.96335 -3.7755 
568 1 -2.07901 4.04071 -2.96989 
26 1 -2.14563 3.54678 -2.06262 
733 1 -1.45547 4.18749 -2.36362 
1756 2 -0.268983 3.5046 -2.78472 
1183 2 0.147607 3.24129 -1.8703 
564 1 0.336611 4.8011 -2.49364 
165 1 -0.0645791 4.21357 -1.88313 
1869 2 0.681556 3.79739 -2.63323 
1926 2 1.44616 3.87593 -2.09081 
1267 2 1.80485 4.13451 -2.89972 
34 1 3.47689 3.82862 -3.16459 
1161 2 2.38861 4.21592 -2.18174 
143 1 4.31928 4.34759 -3.4085 
181 1 4.0148 3.93672 -2.505 
906 1 3.50158 3.33315 -2.11868 
918 1 4.89259 4.22644 -2.77806 
370 1 5.46626 4.85929 -3.53317 
579 1 -4.83835 4.9802 -2.52888 
2016 2 -5.49478 -5.84253 -2.29873 
961 1 -5.36993 4.5619 -2.04353 
589 1 -4.10031 5.1318 -1.71298 
119 1 -4.05767 5.45722 -2.68462 
1014 1 -3.36448 5.74892 -2.40743 
860 1 -2.65578 -5.92516 -2.19362 
1419 2 -2.91574 4.79065 -2.77407 
1601 2 -2.21351 5.10966 -2.51012 
1957 2 -1.14698 5.35206 -2.46078 
1543 2 -1.02619 5.92533 -3.58978 
1818 2 -0.536433 5.85913 -2.90164 
736 1 0.677852 4.68923 -1.83482 
1344 2 0.883703 -5.86499 -2.162 
487 1 2.09728 5.43435 -2.85845 
1234 2 3.17656 4.62966 -2.45665 
182 1 2.71447 5.25805 -2.02529 
43 1 2.4879 -5.92506 -3.64827 
1405 2 3.98334 5.02522 -2.71604 
130 1 3.64538 5.92091 -2.21468 
1362 2 5.65113 5.73611 -2.50789 
355 1 5.64656 4.36699 -2.20122 
1100 2 4.79433 5.61532 -3.17216 
878 1 -5.73901 -4.97862 -1.74857 
666 1 -4.86716 -5.11896 -1.08104 
483 1 -4.66015 -5.28359 -0.214269 
1633 2 -4.64162 -5.82414 -1.64374 
1312 2 -3.71947 -5.68231 -1.32146 
366 1 -3.90588 -4.64434 -0.646441 
1047 2 -2.97174 -5.25818 -1.18508 
1404 2 -2.66486 -5.76347 -0.175289 
1807 2 -2.20236 -5.22071 -0.888012 
1209 2 -1.29139 -4.99604 -0.817524 
260 1 -1.35448 -5.92576 -1.33022 
295 1 -0.77513 -5.1458 -2.10459 
954 1 0.204317 -5.00806 -1.84873 
934 1 0.694382 -5.29167 -0.947761 
229 1 -0.176817 -5.51793 -0.998792 
245 1 1.80335 -4.57293 -1.80199 
678 1 1.08248 -4.99032 -1.59427 
1611 2 1.75831 -5.86718 -1.94133 
257 1 1.49367 -5.01849 -0.864309 
2017 2 2.47351 -5.36801 -1.36208 
1530 2 3.2192 -5.09795 -2.073 
1189 2 1.91639 5.83702 -0.979591 
1767 2 3.61564 -5.21155 -1.04623 
1129 2 3.9847 -4.75322 -1.99401 
1471 2 4.36526 -4.94032 -1.1982 
542 1 4.91596 -5.78338 -1.24301 
153 1 5.40876 -5.36281 -2.09713 
864 1 5.73746 -5.52427 -1.17401 
1409 2 5.10442 -4.75717 -0.677171 
1948 2 -5.22303 -3.66823 -1.58174 
1201 2 -5.32744 -4.12545 -0.916162 
991 1 -4.05935 -4.561 -1.51526 
1851 2 -4.34164 -3.52862 -1.10018 
1449 2 -4.60555 -3.81242 -0.325189 
441 1 -2.62807 -3.65345 -2.33288 
246 1 -3.18859 -4.29544 -1.09359 
71 1 -3.40273 -3.94463 -1.84866 
634 1 -2.43582 -3.89019 -1.38736 
1452 2 -1.40302 -4.51805 -1.6465 
816 1 -1.77905 -3.54719 -2.04763 
1280 2 -0.535197 -4.39363 -0.789309 
1985 2 0.498432 -4.03093 -1.26655 
1613 2 0.398254 -3.67631 -2.07818 
1586 2 2.06393 -3.58836 -0.713471 
1896 2 1.3326 -3.73887 -1.33265 
569 1 2.40371 -4.10103 -2.02277 
137 1 3.14018 -4.06439 -1.67332 
976 1 2.50198 -4.51106 -1.00231 
602 1 4.28883 -3.94477 -0.860798 
928 1 4.61708 -3.05111 -2.1711 
1655 2 5.91135 -3.77919 -2.22868 
1844 2 4.96352 -4.49484 -1.60897 
1521 2 5.70552 -4.14861 -1.28905 
352 1 4.85795 -3.29867 -1.34085 
58 1 -5.27983 -2.75415 -1.37277 
532 1 -4.73773 -2.61911 -0.771393 
291 1 -3.78623 -2.07909 -1.30351 
2007 2 -3.51615 -3.12168 -1.19279 
682 1 -3.05154 -1.91546 -0.635202 
1069 2 -2.68437 -2.80818 -1.09163 
1993 2 -2.4574 -2.56514 -1.76778 
526 1 -0.662262 -3.42903 -0.814646 
986 1 -0.799463 -3.28291 -1.72503 
1289 2 -1.32832 -2.30429 -1.47382 
1077 2 -1.85149 -2.67628 -0.958639 
324 1 -0.037234 -2.86132 -1.57722 
1942 2 1.3369 -3.23747 -2.15857 
573 1 0.984719 -2.90457 -0.790263 
11 1 0.678001 -2.48222 -1.87537 
211 1 2.48976 -2.34854 -0.861861 
215 1 3.38865 -1.96728 -0.862264 
1973 2 2.15392 -3.30526 -1.51603 
1770 2 2.95914 -3.14437 -1.13575 
1708 2 3.69283 -2.8196 -1.31212 
1148 2 4.58572 -2.2578 -1.16366 
754 1 5.47978 -2.81531 -2.15662 
1279 2 5.26406 -1.75878 -1.65723 
311 1 5.76305 -2.89487 -1.39679 
213 1 5.52685 -3.38763 -0.591022 
1393 2 5.28825 -2.11776 -0.795079 
1352 2 -5.80139 -1.82391 -0.851214 
1978 2 -4.97918 -1.28735 -1.57893 
1237 2 -5.87568 -1.56872 -1.69226 
99 1 -3.36904 -1.6968 -2.03343 
1174 2 -4.31882 -1.28541 -0.894987 
1972 2 -4.17204 -0.916006 -1.9115 
717 1 -2.792 -1.33903 -2.36851 
767 1 -2.82981 -1.62515 -1.35659 
1310 2 -3.60665 -0.923099 -1.2798 
548 1 -2.06465 -1.66287 -0.63531 
1883 2 -0.445262 -2.10172 -1.01588 
234 1 -1.25603 -0.957027 -1.87902 
37 1 -2.19106 -1.37557 -1.7229 
898 1 -1.62691 -1.19954 -1.23787 
1808 2 0.245164 -1.57786 -1.45685 
419 1 -0.6177 -1.17948 -0.980366 
2046 2 0.813629 -1.27422 -2.07565 
1819 2 1.79256 -0.785941 -2.01199 
1360 2 1.60957 -1.30202 -1.22365 
1680 2 2.3534 -0.792214 -1.33607 
1758 2 1.99204 -1.36118 -0.542566 
106 1 2.34824 -1.94166 -1.5935 
626 1 3.32241 -1.50364 -1.69348 
983 1 3.95483 -1.40247 -1.09076 
518 1 4.723 -0.837057 -1.41777 
279 1 5.6348 -0.767374 -1.10295 
737 1 4.90832 -1.17181 -0.622009 
654 1 -5.57205 -0.332716 -1.78431 
818 1 -4.49886 0.0372708 -1.64331 
692 1 -5.07958 -0.45856 -0.956076 
1724 2 -5.54735 0.552013 -1.22442 
876 1 -4.14405 -0.0785357 -0.79926 
912 1 -4.33803 0.477685 -2.43622 
1589 2 -2.96102 -0.39993 -1.55754 
1893 2 -1.79946 -0.164414 -1.23481 
189 1 -2.55311 0.472091 -0.590737 
94 1 -3.59681 0.523937 -1.70779 
1834 2 -2.24556 -0.234032 -1.95053 
2043 2 -1.09223 0.166089 -1.51559 
1098 2 -1.11549 -0.245064 -0.584452 
625 1 0.17856 -0.58406 -1.38721 
1187 2 -0.428848 0.23046 -0.948398 
874 1 0.880444 -0.240492 -1.57425 
870 1 2.07928 -0.0396371 -0.807287 
837 1 2.74016 0.446466 -1.13797 
1897 2 3.73961 -0.63168 -0.485993 
2027 2 4.09833 -0.14164 -1.15238 
1858 2 4.63714 0.289128 -1.64444 
1059 2 5.46573 0.380421 -1.29981 
1508 2 5.0404 0.0502142 -0.643328 
966 1 -5.36727 2.20467 -1.98021 
1564 2 -5.65196 0.967071 -2.19445 
1986 2 -4.94765 1.34996 -2.38414 
557 1 -5.66592 1.83625 -1.11033 
2038 2 -4.94348 1.04428 -1.55014 
1520 2 -3.67045 1.56148 -1.32965 
2021 2 -3.26956 1.82528 -2.02488 
1162 2 -2.75408 1.78717 -1.22986 
134 1 -1.16978 1.47189 -1.62278 
259 1 -2.59536 0.784993 -1.46645 
397 1 -1.8398 0.898021 -1.099 
1683 2 0.122946 0.7556 -1.47612 
910 1 -0.378813 1.56368 -1.19209 
1386 2 0.743374 0.636774 -0.882955 
1340 2 2.3987 1.35023 -0.80648 
1712 2 2.1636 1.65775 -1.73507 
1838 2 3.18992 1.46908 -0.467611 
464 1 3.75624 0.716926 -0.802971 
110 1 4.4028 1.33303 -1.26055 
104 1 4.53668 0.929644 -0.427277 
1134 2 2.98651 1.85198 -1.31883 
95 1 4.80162 1.67834 -2.23333 
194 1 5.47151 1.68508 -1.56536 
783 1 5.24153 1.30057 -0.835714 
1399 2 -5.72007 3.14794 -1.67574 
294 1 -4.5624 2.4023 -1.72772 
879 1 -3.717 2.7073 -1.44722 
322 1 -3.79057 2.92182 -2.26423 
520 1 -2.64575 2.99936 -1.24639 
1679 2 -2.40347 2.25186 -1.90599 
2047 2 -2.08284 1.78255 -0.779935 
1981 2 -1.50836 2.45583 -1.39941 
1616 2 -0.4303 2.83902 -1.28595 
1071 2 0.378297 2.98364 -0.993211 
660 1 0.836446 1.99601 -1.04308 
1983 2 -0.560895 2.37075 -0.59473 
747 1 1.77678 2.90052 -2.46706 
114 1 1.74374 2.18989 -0.596321 
945 1 1.6719 2.52006 -1.54018 
183 1 2.52375 2.43619 -0.718912 
1065 2 3.54269 2.24357 -1.91339 
1368 2 4.15936 2.38175 -1.33526 
510 1 2.84022 2.93341 -1.26117 
582 1 3.6931 3.17825 -0.925375 
1866 2 5.29635 3.08376 -2.14828 
1276 2 5.06592 2.62596 -1.3289 
993 1 -4.7594 4.52343 -1.29092 
1330 2 -4.97513 3.42846 -1.56092 
506 1 -5.52522 4.30661 -1.21478 
1056 2 -3.94267 3.62604 -1.01542 
103 1 -4.51691 4.28543 -0.336385 
1275 2 -3.99325 3.29028 -0.23747 
516 1 -1.78287 3.43174 -1.12284 
1335 2 -3.09606 3.9727 -1.12621 
1814 2 -2.10039 4.39715 -0.86238 
1339 2 -2.56143 4.50707 -1.67653 
86 1 -0.97334 3.53549 -0.743106 
418 1 -1.15091 3.8391 -1.65366 
1136 2 -1.11187 4.66503 -0.868129 
627 1 -0.11929 4.00549 -1.05218 
905 1 0.673832 4.36163 -0.98761 
1997 2 0.906522 3.57218 -1.64915 
1913 2 1.73105 3.4842 -1.42405 
1974 2 1.21838 3.27433 -0.813044 
1428 2 2.62485 3.96538 -1.35137 
1842 2 3.44645 4.42547 -1.52768 
1107 2 3.25905 3.94053 -0.802668 
650 1 4.18835 3.55361 -1.52745 