ITEM: TIMESTEP
17500
ITEM: NUMBER OF ATOMS
2048
ITEM: BOX BOUNDS pp pp pp
-5.9274408596479997e+00 5.9274408596479997e+00
-5.9274408596479997e+00 5.9274408596479997e+00
-5.9274408596479997e+00 5.9274408596479997e+00
ITEM: ATOMS id type x y z 
1227 2 -4.36786 -4.3647 -5.04503 
14 1 -5.01855 -5.87155 -5.06707 
1734 2 -5.78127 -4.80279 -5.39246 
805 1 -3.61494 -5.09677 -5.08618 
247 1 -2.94945 -4.61821 -5.82272 
453 1 -2.66192 -5.01015 -4.98152 
2029 2 -1.70921 -5.27929 5.8972 
1542 2 -0.77536 -5.07936 -5.76135 
1151 2 -1.39095 -5.66038 -5.14149 
1035 2 -0.513123 -5.4769 -4.95749 
1429 2 0.00383307 -4.70043 -5.82725 
1260 2 0.563302 -4.78661 -4.9211 
929 1 -0.0404262 -5.83957 5.81473 
495 1 0.713389 -5.85727 -5.47807 
648 1 1.32471 -5.3595 5.70875 
673 1 1.35432 -5.69635 -4.75747 
575 1 1.83116 -5.3216 -5.40265 
442 1 3.08506 -4.91574 -5.40726 
64 1 2.29009 -4.92177 5.82641 
180 1 3.94463 -4.23963 -5.35514 
1192 2 4.22081 -5.46774 -5.59326 
1875 2 3.23685 -5.84718 -5.56706 
1559 2 4.14094 5.90845 -4.97559 
1799 2 5.82353 -5.34817 -4.66076 
1358 2 4.86171 -5.66956 -4.65176 
1307 2 5.1126 -5.16852 -5.44522 
251 1 -5.21459 -3.45078 -5.23387 
1103 2 -3.86776 -3.81015 -5.61759 
75 1 -5.62381 -3.3978 5.90529 
1046 2 -3.13998 -3.83703 -5.30411 
1633 2 -3.63289 -4.10217 -4.60382 
1390 2 -4.28089 -3.92738 5.38803 
91 1 -2.17182 -4.40483 -5.57977 
1711 2 -2.19551 -3.29889 -5.46644 
1630 2 -2.87158 -3.44842 5.91345 
765 1 -1.18982 -4.23218 -5.29459 
2009 2 -1.33869 -3.17541 -5.11511 
416 1 -0.333549 -4.30061 -4.51625 
924 1 -0.255275 -3.90627 -5.17444 
202 1 0.784405 -3.39257 -5.25619 
819 1 1.26208 -3.55984 -4.26845 
1709 2 1.17134 -4.37569 -5.4611 
1486 2 1.44974 -4.50676 -4.5993 
1790 2 2.07276 -4.119 -5.40775 
1678 2 3.06789 -3.59813 -5.68409 
1887 2 2.74581 -4.00054 -5.06805 
223 1 4.87417 -4.23769 -5.04433 
1232 2 4.46614 -3.31022 -4.59066 
1737 2 4.00955 -3.06492 -5.52934 
511 1 5.62359 -3.68905 -5.09261 
57 1 5.25641 -3.72272 5.88047 
339 1 4.53145 -4.5492 -4.4081 
1475 2 -4.60707 -2.01364 -4.81934 
2032 2 5.96143 -2.53406 -5.27559 
1872 2 -5.02988 -2.11432 -5.63187 
353 1 -4.41163 -2.94379 -5.23607 
465 1 -4.69229 -3.1548 5.88258 
269 1 -3.56794 -2.70117 -5.38701 
236 1 -1.97879 -2.33323 -4.89205 
387 1 -2.68653 -2.32598 -5.48072 
151 1 -1.68127 -1.9115 -5.51968 
1379 2 -0.611355 -2.77172 -5.16329 
1370 2 -0.734421 -3.34302 -4.42096 
830 1 -1.08023 -1.88644 -4.68776 
1555 2 0.494704 -2.37258 -5.44759 
1763 2 0.0929408 -2.77179 -4.57873 
1820 2 1.20833 -1.67973 5.5657 
122 1 1.5734 -3.08956 -5.20832 
1645 2 0.958203 -2.37068 -4.5966 
1401 2 1.39155 -2.09063 -5.25158 
547 1 2.50356 -2.61756 -5.48937 
403 1 3.27655 -2.38376 -5.00015 
904 1 4.00023 -2.08283 -5.44055 
1995 2 4.82485 -2.91146 -5.26345 
999 1 4.65838 -1.96864 -4.84617 
1129 2 5.44656 -2.79701 -4.70073 
1813 2 5.39985 -2.64297 -5.89399 
740 1 -5.21342 -1.21452 -5.038 
771 1 -4.77899 -0.709808 -5.75255 
308 1 -5.72956 -1.20911 -5.76237 
1745 2 -4.09091 -1.85676 -5.4237 
833 1 -4.3316 -0.814941 -4.88551 
1733 2 -3.29398 -1.44592 -5.65647 
1341 2 -4.4258 -1.66105 5.6303 
1809 2 -2.36806 -1.08124 -5.55829 
1569 2 -2.68428 -0.865955 5.58986 
1345 2 -1.88101 -1.0859 -4.84564 
622 1 -0.581131 -1.57904 -5.5204 
578 1 0.997363 -0.849219 -5.89182 
8 1 0.406041 -1.28398 -5.29762 
1190 2 1.90393 -1.66615 -5.66241 
788 1 1.81017 -0.604 -5.48849 
768 1 1.21861 -1.1137 -4.88189 
1964 2 2.53339 -1.28519 5.87944 
1676 2 3.20561 -1.24525 -5.40173 
1083 2 2.33468 -1.74038 -4.91317 
866 1 2.17937 -0.767363 -4.64026 
1590 2 3.85991 -0.774534 -5.92797 
1259 2 3.84903 -1.05444 -4.9777 
1775 2 4.62902 -0.71178 -5.29172 
2036 2 5.36233 -0.610621 -4.6617 
609 1 5.41885 -1.5402 -5.21394 
33 1 4.64673 -1.68257 -5.67403 
1498 2 -5.18015 -0.061594 -5.05206 
1615 2 -5.7493 -0.250212 -4.5578 
505 1 -3.66794 -0.570158 -5.3795 
2028 2 -4.63352 0.497258 -5.3735 
543 1 -4.05793 -0.212848 5.80694 
451 1 -2.34152 -0.0796337 -5.08868 
386 1 -3.05188 -0.0987604 -5.72302 
789 1 -0.764991 0.266632 -4.29336 
1171 2 -0.65346 -0.653026 -4.82632 
827 1 -1.4705 0.110244 -4.93084 
1414 2 -1.40993 -0.778935 -5.47143 
1963 2 0.149992 -0.212115 -5.0732 
1572 2 0.723368 0.0909568 -5.70239 
1804 2 -0.433026 -0.221459 -5.71152 
1852 2 1.42854 0.397128 -5.18008 
1223 2 1.07972 -0.182652 -4.55452 
42 1 2.69217 -0.361453 -5.35259 
31 1 2.37602 -0.055738 5.85529 
2041 2 2.26685 0.812956 -5.37731 
1785 2 2.64955 0.592236 -4.7454 
560 1 3.65232 0.153023 -5.53886 
60 1 4.26484 0.157042 -4.7817 
960 1 4.61801 0.515629 -5.63235 
1623 2 5.65067 -0.277997 -5.40814 
469 1 5.19575 0.407359 -4.73639 
1332 2 4.95812 -0.481851 5.87976 
656 1 -5.36251 1.13293 -4.89711 
752 1 -4.75551 1.52108 -5.34931 
1346 2 -3.8832 0.571616 -4.76651 
190 1 -3.74524 1.86302 -4.99573 
338 1 -4.27535 1.42032 -4.51818 
1962 2 -3.32156 0.932317 -5.44658 
1736 2 -2.74248 0.717558 -4.83678 
1343 2 -2.24711 1.29071 -5.26097 
517 1 -0.633093 0.58073 -5.24646 
1298 2 -1.68012 1.70352 -5.69779 
1054 2 -0.990238 1.59847 -5.22343 
254 1 0.413849 1.16228 -5.25729 
842 1 1.4068 1.4669 -5.14032 
380 1 1.58169 1.88979 -5.75814 
156 1 0.756675 1.576 -5.94575 
1910 2 3.15511 1.09657 -5.28152 
1470 2 4.30992 1.50295 -5.10395 
1845 2 3.69641 1.40993 -5.92438 
302 1 5.61281 0.743434 -5.32124 
1204 2 4.90044 1.75776 -5.71121 
1068 2 4.96538 1.45315 -4.5694 
549 1 5.34884 0.833071 5.78388 
1403 2 -5.35648 2.21451 -5.03377 
1377 2 -4.60742 2.63258 -5.3019 
188 1 -5.70107 3.18292 -4.7337 
1717 2 -5.86521 2.29429 -5.83236 
1142 2 -3.90112 2.91226 -4.83217 
1716 2 -4.11199 3.12906 5.85988 
1175 2 -3.30758 3.35864 -5.65385 
982 1 -2.66375 2.06873 -4.87297 
852 1 -2.10653 2.55608 -5.31287 
593 1 -0.921576 2.82458 -5.3382 
310 1 -1.43728 2.42282 -4.67073 
1884 2 -0.183968 2.06436 -4.91607 
1653 2 0.607543 2.10016 -4.38506 
1945 2 -0.387727 2.13249 -5.84116 
1506 2 0.59684 2.40698 -5.41701 
1769 2 1.30635 2.58782 -4.94523 
1130 2 1.8927 2.99344 -5.39736 
895 1 2.39944 2.14485 -5.67625 
2020 2 2.48054 2.90936 -4.69969 
1628 2 3.13763 3.38646 -5.29103 
1011 1 2.9841 1.9875 -4.92473 
796 1 3.27843 2.40929 -5.6447 
574 1 3.84478 2.38942 -4.87136 
869 1 4.29138 2.8326 -5.58447 
1497 2 5.48873 1.82206 -5.22581 
396 1 4.96828 2.7958 -5.00017 
882 1 5.57012 3.20784 -5.43795 
923 1 -5.07486 3.6762 -5.1335 
1088 2 -5.51471 4.46084 -4.77537 
178 1 -5.62879 3.72787 -5.76554 
45 1 -4.45575 4.10613 -5.69392 
92 1 -3.53902 4.26845 -5.24781 
1869 2 -2.40728 3.5978 -5.308 
1096 2 -1.84877 3.85723 -5.97301 
1824 2 -1.33414 3.68725 -4.99701 
1480 2 -0.346193 4.26588 -5.20226 
1336 2 0.41896 4.46833 -4.67648 
56 1 0.168807 3.35844 -5.16389 
709 1 1.7661 3.96481 -5.01727 
884 1 2.29785 4.36246 -5.6323 
716 1 0.962156 3.78612 -5.52712 
1979 2 2.54073 3.37339 -5.85364 
256 1 2.67937 4.10623 -4.61014 
501 1 2.91459 4.86064 5.87328 
1618 2 4.00393 3.70835 -5.03371 
1779 2 4.83991 4.10548 -5.57421 
1342 2 3.63616 3.82962 -5.86845 
1640 2 5.2748 4.60611 5.76153 
1073 2 5.40417 4.05328 -4.87352 
435 1 5.83628 5.69274 -5.22861 
1349 2 5.82314 4.57795 -5.40934 
1417 2 -5.59683 5.01343 5.78284 
1670 2 -4.84572 5.04183 -5.29714 
1191 2 -3.8145 4.92932 -3.9678 
1510 2 -3.94639 5.23639 -4.91787 
687 1 -2.94786 4.64342 -5.87673 
1551 2 -3.09545 5.44901 -4.64408 
1365 2 -3.17935 5.72933 -5.52035 
1526 2 -2.38773 5.85925 -5.35577 
632 1 -2.49929 4.65494 -5.02352 
638 1 -1.39852 5.08734 -5.37246 
221 1 -1.68067 4.55526 -4.63924 
428 1 -0.824327 5.19889 -4.71662 
350 1 0.613887 5.64916 -4.35477 
528 1 -0.139375 5.44703 -5.17841 
2042 2 -0.207638 4.69645 5.88754 
1378 2 0.935964 4.74372 -5.46841 
1145 2 1.16008 4.85014 -4.51122 
1093 2 1.49914 5.27819 -5.76105 
1955 2 1.90891 5.2456 -4.90139 
1691 2 2.78116 5.49344 -5.09181 
777 1 2.59145 4.93737 5.07427 
1847 2 2.20877 5.86849 5.84438 
407 1 4.10051 4.86396 -5.02197 
18 1 3.80162 5.12965 5.90191 
775 1 3.32241 4.54317 -5.15894 
699 1 5.04843 5.23713 -5.04563 
473 1 4.69933 5.366 -5.83424 
172 1 5.4918 5.8922 5.86353 
1849 2 -5.20466 -4.8015 -4.76155 
1773 2 -5.35132 -5.21338 -3.85063 
1663 2 -3.80126 -4.57496 -3.85418 
1418 2 -4.54914 -4.75613 -4.14092 
346 1 -4.24328 -5.62495 -4.66204 
508 1 -3.26064 -5.37299 -4.36077 
255 1 -3.83587 5.89356 -3.73297 
274 1 -2.3703 -5.26935 -4.14407 
5 1 -1.80386 -4.76988 -4.76195 
326 1 -1.71609 -4.98488 -3.73466 
1291 2 0.100099 -5.39626 -4.24419 
1338 2 0.779114 -5.47376 -3.3697 
1029 2 -0.440549 -5.59243 -3.69152 
1334 2 0.972469 -4.89687 -3.98274 
425 1 2.59211 -5.30017 -4.78368 
487 1 2.79919 -5.71877 -3.51704 
955 1 3.24789 -5.31879 -4.15518 
1319 2 1.76277 -4.90538 -3.61289 
667 1 4.20026 -5.19268 -3.8656 
131 1 3.76268 -4.93356 -4.74786 
809 1 5.2917 -4.60564 -3.61253 
1272 2 5.5639 -5.60338 -3.87425 
284 1 5.61423 -4.97225 -2.88682 
373 1 -5.48056 -3.85087 -4.41916 
991 1 -5.01365 -3.93775 -3.57138 
878 1 -5.67666 -4.37158 -3.27577 
218 1 -3.51372 -3.06541 -4.59111 
273 1 -4.4715 -3.47033 -4.45117 
504 1 -4.05757 -3.49655 -3.60231 
1602 2 -2.38946 -3.80702 -4.76427 
1231 2 -1.5832 -3.49022 -4.35024 
1548 2 -2.90188 -4.29513 -4.13226 
524 1 -3.16392 -3.3616 -3.78127 
855 1 -1.07142 -4.56318 -4.3344 
1477 2 -1.14592 -3.70056 -3.66235 
227 1 0.406406 -3.88758 -4.53311 
467 1 0.084386 -4.33058 -3.72447 
1452 2 -0.356627 -3.62354 -3.127 
782 1 1.0635 -4.14112 -3.46166 
938 1 2.06829 -3.42236 -3.87421 
20 1 2.92239 -3.39007 -3.51591 
1082 2 2.27053 -4.45253 -4.3195 
1528 2 3.16975 -4.24807 -4.03841 
1592 2 3.67704 -3.48787 -4.74305 
1836 2 3.9826 -3.79728 -3.98445 
1902 2 5.14814 -3.34167 -3.97256 
280 1 5.48421 -4.25564 -4.37576 
1655 2 4.65825 -3.83402 -3.29104 
1937 2 -5.43905 -2.51329 -4.7141 
1465 2 -5.848 -2.86909 -3.99571 
1664 2 -4.74928 -2.52696 -4.05624 
1588 2 -3.93193 -2.17666 -4.17161 
1243 2 -3.42175 -2.39063 -3.34932 
664 1 -2.77813 -2.73378 -4.7931 
196 1 -2.4949 -2.79255 -4.04071 
1908 2 -2.89126 -1.91725 -3.95632 
35 1 -1.60442 -2.45603 -4.06823 
657 1 -0.674752 -2.17664 -4.03126 
1581 2 -0.0862138 -3.10224 -3.8561 
1848 2 0.672613 -2.7517 -3.85859 
421 1 0.0282709 -1.96307 -3.56942 
1991 2 0.5918 -3.1776 -3.21611 
1982 2 1.84312 -2.29698 -4.30478 
1738 2 2.40935 -2.51741 -3.35927 
1263 2 1.45333 -2.49969 -3.57142 
1001 1 2.32628 -3.14603 -4.73536 
639 1 3.02299 -2.83142 -4.35585 
1533 2 2.68016 -2.00664 -3.89812 
1326 2 3.30261 -1.84604 -3.48254 
277 1 3.95853 -2.39227 -4.4728 
914 1 3.71844 -2.80897 -3.61162 
602 1 4.63878 -2.38759 -3.84907 
562 1 5.25276 -1.94334 -4.27291 
968 1 5.71994 -1.93418 -3.56895 
784 1 -5.91212 -1.52722 -4.72605 
205 1 -4.64224 -1.18311 -4.10303 
66 1 -5.44959 -1.70527 -4.08422 
2001 2 -5.41408 -0.764167 -3.09649 
161 1 -4.16504 -1.44649 -3.34281 
717 1 -3.70211 -0.929313 -4.1602 
1271 2 -2.70291 -1.52343 -4.86923 
1097 2 -3.48605 -1.82494 -4.72232 
419 1 -3.187 -0.989408 -3.53844 
1478 2 -2.19883 -1.57722 -4.18455 
701 1 -3.21047 -0.520407 -4.69387 
1975 2 -0.344548 -0.684305 -4.21421 
1573 2 -1.37151 -1.03145 -4.20109 
1006 1 -0.0975253 -1.73112 -4.72762 
674 1 0.591763 -1.52878 -4.12639 
1870 2 -0.762379 -1.24301 -3.55746 
427 1 0.943869 -1.69829 -3.31306 
581 1 1.59449 -1.31642 -4.05514 
116 1 2.85304 -0.71927 -4.03071 
640 1 2.16258 -1.24268 -3.5165 
1363 2 3.17542 -1.53577 -4.44041 
1030 2 3.93748 -1.47361 -4.14895 
2048 2 4.74448 -0.953031 -4.43486 
1110 2 5.0197 -1.23072 -3.67529 
1163 2 5.75816 -0.736179 -3.82111 
1634 2 -5.25913 -0.318702 -3.81471 
818 1 -5.43308 0.626764 -3.43427 
1830 2 -4.59665 0.0480725 -4.38414 
1111 2 -3.96736 -0.0149374 -3.72563 
1754 2 -4.70371 -0.468315 -3.02539 
1184 2 -3.2345 0.420901 -4.18684 
214 1 -2.56784 -0.587971 -4.07862 
1643 2 -2.71123 0.226063 -3.42091 
749 1 -1.88351 -0.128662 -4.2598 
615 1 -1.28591 -0.169452 -3.63572 
408 1 -0.322152 0.186822 -3.55661 
1644 2 0.421289 -0.562928 -3.96803 
80 1 0.381075 0.493377 -3.94881 
1180 2 1.92289 0.238032 -4.40833 
1673 2 1.27396 -0.469578 -3.60246 
90 1 1.03746 0.650193 -3.46653 
1777 2 2.53817 0.22048 -3.75804 
1412 2 3.18271 0.669623 -4.01614 
758 1 3.20404 -0.203916 -4.80954 
715 1 3.71074 -0.394657 -4.20797 
1953 2 3.87609 0.663127 -3.55136 
872 1 4.48468 -0.0535294 -3.94859 
109 1 5.24209 0.288655 -3.84772 
334 1 4.98186 -0.321578 -3.221 
32 1 -5.8913 0.721087 -4.2879 
1810 2 5.86625 1.84539 -4.4172 
278 1 -4.97392 1.00694 -4.02528 
230 1 -3.85984 1.18889 -3.78761 
900 1 -4.46035 0.795998 -3.36235 
689 1 -3.10653 1.61446 -4.27343 
903 1 -2.49669 1.68224 -3.73262 
1550 2 -2.29424 0.80921 -4.10706 
1256 2 -1.73356 1.14496 -4.56363 
1050 2 -1.19771 1.15471 -3.94984 
1436 2 -1.73355 0.586197 -3.37501 
1364 2 -0.559701 1.49057 -4.32018 
1683 2 0.117244 1.55162 -3.79897 
594 1 -0.152258 0.66476 -4.60026 
551 1 2.13096 1.68544 -4.63891 
1021 1 0.797615 1.03529 -4.47583 
50 1 1.53846 1.12412 -4.03016 
760 1 2.72356 1.58009 -4.00997 
171 1 2.37475 1.21788 -3.27589 
894 1 3.47958 1.96453 -4.13058 
1172 2 3.73201 1.11913 -4.65053 
1861 2 4.43432 1.05419 -4.10425 
731 1 3.23865 1.47621 -3.19234 
621 1 4.16038 2.12339 -3.46678 
1132 2 5.44604 1.49586 -3.74027 
1654 2 4.84405 1.05094 -3.16439 
1728 2 -5.2262 1.98857 -3.90066 
7 1 -5.54546 2.96781 -3.70754 
1482 2 -4.62183 2.3994 -4.33971 
1512 2 -4.0271 2.23602 -3.75562 
1485 2 -3.48503 2.59188 -4.11557 
369 1 -4.32637 3.20189 -3.29874 
1625 2 -2.9366 3.12546 -4.78535 
1794 2 -2.37556 3.02325 -4.0157 
1415 2 -2.93956 2.47376 -3.37904 
1015 1 -2.02739 2.11544 -4.15534 
686 1 -1.58054 1.97455 -3.50158 
208 1 -0.919304 2.51341 -3.88376 
561 1 -0.559794 2.96897 -4.50166 
843 1 0.248245 3.05208 -4.22015 
301 1 -0.218089 2.43262 -3.37492 
1187 2 1.32317 2.11529 -3.71078 
1999 2 1.87282 2.52808 -4.3669 
2039 2 2.97898 2.85442 -3.99131 
1274 2 3.50023 3.30165 -4.41808 
1522 2 4.19376 3.42192 -4.03761 
726 1 4.48533 2.48183 -4.26298 
204 1 5.48738 2.78882 -4.19423 
631 1 4.9957 2.38786 -3.64131 
702 1 4.99296 2.14068 -2.72116 
1278 2 -5.89348 4.13874 -4.1977 
69 1 -4.73313 3.32897 -3.98148 
1575 2 -5.12533 4.31005 -3.71713 
1636 2 5.85818 3.70396 -3.29962 
676 1 -4.24198 3.84474 -4.71565 
446 1 -3.67964 3.59355 -3.86159 
1413 2 -4.2384 4.4384 -3.35513 
755 1 -3.13689 4.11918 -4.45591 
250 1 -2.90336 3.84352 -3.46882 
577 1 -2.24386 4.39069 -3.96127 
1268 2 -1.9956 3.57951 -4.50523 
1926 2 -1.27404 3.59853 -3.92217 
17 1 -1.76288 4.29595 -3.22878 
1161 2 -0.611875 4.00353 -4.38367 
1372 2 -0.262268 3.67995 -3.5509 
1304 2 -0.790479 3.33718 -3.00124 
1354 2 0.709141 4.17658 -3.7376 
885 1 0.885305 3.39972 -4.58679 
1668 2 1.38966 4.24758 -3.20124 
478 1 1.29996 3.28559 -3.63371 
76 1 1.93974 3.67184 -4.19989 
34 1 2.79206 3.95128 -3.81472 
653 1 3.39012 4.33652 -4.29145 
835 1 3.80732 4.23671 -3.38024 
1562 2 4.79096 3.76595 -4.53627 
262 1 4.06471 4.45119 -4.16544 
370 1 4.73946 4.48186 -3.4762 
1977 2 4.6464 3.44615 -3.28512 
1439 2 5.29744 3.75044 -3.86649 
412 1 -5.44614 5.5596 -4.40824 
662 1 -5.42554 5.33671 -3.59857 
1048 2 -4.71802 4.72298 -4.31974 
342 1 -4.81616 5.80933 -4.03099 
1353 2 -3.20966 4.74717 -3.01113 
1038 2 -2.84057 5.12609 -3.72482 
340 1 -1.13192 4.73693 -3.81652 
1329 2 -2.10724 5.64733 -4.42504 
1236 2 -1.52544 5.71162 -3.53751 
1571 2 -1.0426 -5.76047 -4.22172 
87 1 -0.248037 5.08514 -4.20469 
612 1 0.417051 5.28659 -3.6458 
2040 2 1.82 4.64605 -3.78399 
959 1 2.12543 -5.72247 -4.13889 
237 1 1.46288 5.75337 -3.69072 
82 1 1.11977 5.15293 -2.98307 
1033 2 2.56068 4.78152 -3.3167 
1593 2 2.49081 5.07359 -4.25852 
1499 2 3.40456 5.2655 -3.67759 
1764 2 3.37541 5.62442 -4.58397 
1612 2 4.11975 5.52984 -4.05268 
1425 2 4.89274 5.78988 -3.77218 
1714 2 4.27466 5.30615 -3.08168 
946 1 4.89546 4.80304 -4.28082 
825 1 5.68852 5.18614 -4.2529 
443 1 5.58978 4.876 -3.51018 
1534 2 -4.92075 -5.33471 -3.14186 
1604 2 -5.63866 -5.79397 -3.11547 
1261 2 -3.32248 -4.87507 -2.78288 
2016 2 -4.18812 -5.10901 -3.2437 
1394 2 -3.99863 -5.45051 -2.20158 
1197 2 -2.72441 -4.38011 -3.26543 
1285 2 -3.07196 -5.11902 -2.00058 
1008 1 -2.94464 -5.67427 -3.52698 
1783 2 -2.37479 -4.66554 -2.46215 
902 1 -0.649981 -4.57489 -3.51234 
260 1 -2.1419 -5.44508 -3.01586 
934 1 -1.4013 -5.56329 -2.44609 
459 1 -1.16864 -5.05016 -3.05318 
1818 2 0.0729283 -5.96716 -2.90195 
147 1 0.066905 -4.75735 -2.98844 
328 1 0.517163 -4.87934 -2.09651 
1928 2 1.72368 -5.24621 -2.80962 
1984 2 2.48437 -5.05912 -2.3677 
1081 2 0.865787 -5.70923 -2.51094 
2019 2 3.19396 -4.97588 -1.8886 
1765 2 3.33397 -4.68191 -2.67063 
1563 2 2.67126 -4.72261 -3.1984 
847 1 3.71309 -5.59685 -3.20533 
586 1 4.02937 -5.57966 -2.42508 
153 1 4.71292 -5.28022 -3.00915 
1530 2 3.8676 -4.56913 -1.77458 
864 1 -5.91869 -5.13977 -2.05474 
542 1 5.04644 -5.30179 -2.18931 
1657 2 -5.12134 -2.95704 -3.22708 
798 1 -5.46738 -4.64307 -2.57712 
483 1 -4.48527 -4.24336 -2.89194 
411 1 -3.95512 -4.31267 -2.22092 
666 1 -4.74251 -4.72301 -2.00112 
246 1 -3.66522 -3.68901 -2.86909 
753 1 -2.75737 -3.62269 -2.69645 
1079 2 -2.13258 -3.9729 -3.84807 
1807 2 -1.82822 -4.24954 -3.09874 
1402 2 -1.00354 -3.95972 -2.66789 
677 1 -1.86056 -3.27437 -2.40397 
1280 2 -0.575973 -4.18864 -2.05301 
1457 2 0.237697 -3.83007 -2.34198 
107 1 0.917535 -4.47295 -2.80303 
249 1 1.67917 -4.30804 -2.29628 
661 1 1.90845 -3.92674 -3.25029 
1896 2 1.02115 -3.40297 -2.36504 
321 1 3.45077 -3.36779 -2.86196 
550 1 2.57094 -3.75759 -2.77356 
385 1 3.13461 -3.80077 -2.00554 
1198 2 3.69443 -4.2346 -3.3983 
1844 2 4.2822 -4.4044 -2.8012 
137 1 4.02446 -3.40497 -2.17235 
928 1 4.65355 -3.36557 -1.23461 
2010 2 5.75774 -3.32825 -3.15553 
1240 2 5.21089 -3.93478 -2.5258 
1817 2 -5.70986 -3.61791 -2.38248 
592 1 -5.68477 -2.21692 -2.89706 
734 1 -5.41242 -2.36594 -2.18386 
1871 2 -4.98876 -3.27865 -2.57328 
1924 2 -4.30308 -2.43874 -3.35421 
1911 2 -3.21514 -2.66644 -2.49185 
2007 2 -4.21199 -2.7825 -2.61696 
313 1 -2.33044 -3.14435 -3.33681 
1867 2 -2.61327 -2.12992 -3.00004 
599 1 -1.54491 -2.8091 -3.29272 
388 1 -0.932617 -3.00825 -2.52668 
597 1 -0.604653 -2.56266 -3.21862 
11 1 -0.166432 -2.66482 -2.41996 
287 1 0.382583 -2.21492 -2.84415 
1580 2 1.70957 -2.9994 -2.81274 
998 1 0.94458 -2.25877 -2.27867 
1923 2 2.23553 -2.69783 -2.27793 
1066 2 3.12466 -2.37412 -2.77836 
1123 2 3.38959 -2.39457 -1.98462 
1973 2 4.10251 -2.05159 -2.4435 
754 1 4.34626 -2.96618 -2.8877 
140 1 5.17352 -2.56406 -3.00836 
471 1 5.70778 -2.67052 -2.17214 
296 1 4.89753 -3.02864 -2.16645 
1698 2 4.86497 -1.59323 -2.6475 
636 1 -5.20079 -1.75043 -3.40539 
1826 2 -5.03248 -0.986962 -2.32374 
1946 2 -5.74789 -1.39069 -2.02547 
1792 2 -4.27205 -0.885889 -1.89199 
291 1 -4.58614 -1.75565 -2.51587 
767 1 -3.57203 -1.47576 -2.80224 
1537 2 -1.94079 -1.62368 -3.50238 
704 1 -2.74598 -0.998627 -2.82874 
234 1 -1.93319 -0.638798 -3.23811 
117 1 -2.92555 -1.58834 -2.15174 
1296 2 -1.23783 -1.72569 -2.95133 
37 1 -2.00792 -0.934965 -2.23723 
1781 2 -1.12786 -1.99334 -2.03083 
1635 2 -0.409116 -1.58217 -2.60835 
1517 2 0.227043 -1.33389 -2.36368 
705 1 1.73389 -1.65694 -2.90291 
1916 2 1.056 -1.11641 -2.02119 
106 1 2.34826 -1.63098 -2.30735 
700 1 2.85893 -1.25994 -2.89353 
299 1 3.45429 -0.800346 -3.42643 
125 1 3.71558 -1.08498 -2.56899 
846 1 4.24922 -0.482014 -3.09013 
1350 2 4.21984 -1.59811 -3.34203 
1641 2 5.63139 -1.24726 -2.95232 
867 1 4.72168 -0.673089 -2.15425 
1279 2 5.37459 -1.75001 -1.89097 
692 1 -4.88695 0.473893 -2.71321 
654 1 -5.5842 0.15189 -2.49631 
297 1 5.74539 0.346096 -3.25192 
1876 2 -3.44096 -0.0468779 -3.04962 
824 1 -4.14538 0.549929 -2.30178 
2035 2 -3.9638 -0.441674 -2.61205 
1589 2 -3.40492 -0.596412 -1.94366 
1206 2 -2.90183 -0.0920431 -2.1878 
1834 2 -2.24386 0.222992 -2.63329 
898 1 -1.19164 -0.69796 -2.66597 
1761 2 -1.68818 0.296606 -2.09309 
1456 2 -0.0521669 -0.943175 -3.23195 
625 1 -0.467114 -0.494469 -2.00505 
499 1 -0.564525 -0.181958 -2.87116 
776 1 0.422447 0.245806 -2.94598 
1832 2 0.728016 -0.713021 -2.8484 
963 1 1.24789 0.250657 -2.38677 
2027 2 2.01461 -0.765582 -1.77621 
1568 2 1.51008 -0.746997 -2.58451 
1502 2 2.04014 -0.272281 -3.16079 
2008 2 3.47819 0.0979385 -2.20108 
1696 2 3.28242 0.0922878 -3.09473 
1320 2 4.14185 0.303025 -2.68764 
241 1 5.47386 -0.332291 -2.56089 
1858 2 4.82514 0.586619 -2.15618 
1877 2 -5.77132 1.49016 -3.21236 
1986 2 -5.04703 1.50888 -2.54393 
1720 2 -4.6751 1.84548 -3.2066 
1508 2 -5.63176 1.01507 -2.03184 
1282 2 -4.16644 1.67945 -2.32978 
613 1 -3.66402 0.864815 -2.83957 
94 1 -3.22987 0.79971 -2.05961 
164 1 -3.09757 1.24578 -3.39237 
259 1 -2.71174 1.17394 -2.46905 
1104 2 -1.2406 0.536701 -2.78863 
489 1 -2.17675 1.44749 -3.05429 
189 1 -1.51968 1.54664 -2.35818 
1149 2 -0.572568 1.13538 -3.2506 
1893 2 0.859631 1.6161 -3.29076 
1310 2 0.310909 1.20386 -2.76229 
2022 2 -0.399348 0.88597 -2.45681 
874 1 1.83113 0.733232 -2.92417 
1340 2 1.96636 2.03528 -2.96314 
1386 2 1.3411 1.53472 -2.51986 
464 1 1.91776 0.338286 -1.91896 
232 1 2.7327 0.922126 -2.61833 
1642 2 2.12161 1.60457 -2.06625 
110 1 3.53221 1.15711 -2.26856 
944 1 4.16517 1.63492 -2.73191 
1803 2 5.59527 1.20587 -2.65154 
194 1 5.61 1.98819 -2.16335 
811 1 -5.57895 2.37453 -2.5979 
926 1 -4.91646 2.76352 -2.7823 
516 1 -4.49915 2.62078 -1.88511 
276 1 -4.04702 3.00799 -2.62116 
1938 2 -3.58786 2.04779 -2.97056 
323 1 -3.33571 2.99285 -1.94802 
1476 2 -2.26083 2.54621 -2.84642 
1839 2 -2.80346 2.20876 -2.26251 
1607 2 -1.75564 3.10707 -3.30926 
719 1 -1.01523 2.03712 -2.90198 
1959 2 -1.78723 2.39029 -1.9417 
134 1 0.237325 2.35495 -2.73866 
240 1 0.721762 2.74162 -3.21592 
937 1 1.51753 2.82269 -2.63987 
945 1 0.901393 2.26862 -1.97662 
1214 2 2.39277 2.47346 -3.53774 
448 1 2.33612 3.26103 -2.50587 
1461 2 2.84233 2.0608 -2.40019 
1994 2 3.04592 2.45565 -3.02947 
1105 2 3.74858 3.09257 -3.35548 
1686 2 3.79504 2.63372 -2.45678 
381 1 5.71899 2.5651 -3.22161 
1825 2 4.57536 2.97493 -2.49163 
1072 2 -5.6295 3.55249 -2.33151 
1527 2 -5.0722 4.02229 -2.91904 
1419 2 -4.27287 3.96401 -2.40433 
1275 2 -3.54751 4.31048 -2.38534 
1287 2 -4.81757 3.63296 -1.82383 
989 1 -3.33597 3.33195 -2.97703 
772 1 -2.18297 3.94385 -2.67702 
26 1 -2.62555 3.52125 -2.23887 
1957 2 -2.88701 4.32619 -1.64566 
1689 2 -1.29073 2.87968 -2.48137 
568 1 -1.07539 3.99891 -2.064 
361 1 -1.04464 4.34696 -2.81298 
1616 2 -0.100113 3.29443 -2.4528 
564 1 -0.313334 4.35524 -2.39517 
1183 2 0.671354 3.72097 -2.94103 
1071 2 1.11169 3.73693 -2.18821 
1981 2 0.437445 3.20153 -1.76725 
394 1 2.07601 3.3839 -3.30629 
1042 2 1.93504 4.15178 -2.5627 
1854 2 2.84918 4.36497 -2.13779 
1428 2 2.16843 3.96982 -1.82532 
552 1 2.9743 3.79929 -2.99537 
432 1 3.94747 3.89965 -2.56359 
650 1 4.28928 3.71201 -1.81972 
579 1 5.89084 4.50341 -1.98181 
1333 2 5.40103 3.31513 -2.54398 
166 1 4.74208 4.21094 -2.64335 
355 1 5.22032 4.17103 -1.89989 
993 1 -5.50373 4.85258 -2.69743 
589 1 -4.55293 5.4449 -3.07543 
119 1 -3.82082 5.56512 -2.83842 
961 1 -4.71416 4.98573 -2.27124 
1335 2 -2.45178 4.85387 -2.48085 
1757 2 -2.21612 5.27913 -3.29377 
295 1 -2.23501 -5.87242 -2.21632 
1339 2 -1.96762 4.71808 -1.7864 
1543 2 -1.57666 5.22291 -2.59509 
1503 2 -0.836442 5.56825 -3.07251 
836 1 -0.307357 4.73802 -3.29934 
123 1 0.409568 4.75315 -2.72281 
1915 2 0.0939476 5.67207 -2.11841 
736 1 0.833283 4.72902 -1.96295 
652 1 1.66678 5.22293 -2.43764 
41 1 2.11424 5.62054 -3.04181 
461 1 3.05829 5.89927 -2.61764 
490 1 2.45407 5.41358 -2.16285 
1126 2 3.30788 5.0168 -2.82823 
1318 2 4.40155 5.05835 -2.3422 
1090 2 3.73988 4.81794 -1.86596 
2000 2 -5.65705 5.79662 -2.28729 
1178 2 5.18566 5.47146 -2.25709 
918 1 5.57992 4.47987 -2.7386 
1411 2 5.42959 5.73738 -3.00313 
724 1 -5.286 -4.9971 -1.45155 
65 1 -5.84373 -5.49115 -0.732065 
366 1 -4.66406 -5.0452 -0.83776 
1312 2 -3.60432 -5.55373 -1.24535 
890 1 -3.51912 -4.7241 -0.457185 
1122 2 -4.9173 -5.74127 -2.3483 
1822 2 -4.10678 5.60325 -0.68027 
1404 2 -2.85529 -5.48415 -0.9433 
1106 2 -2.22523 -5.00874 -1.6296 
1454 2 -1.62916 -5.10877 -0.845 
337 1 -1.11123 -5.66945 -1.64867 
1209 2 -1.02655 -4.52508 -1.35605 
497 1 -1.28489 5.66249 -0.858217 
678 1 -0.423356 -5.10715 -2.41246 
85 1 -0.164921 -5.20087 -1.53653 
981 1 -0.434758 -5.79252 -0.819168 
245 1 0.742638 -5.14577 -0.998119 
100 1 1.28837 -4.71143 -1.63935 
1828 2 2.34857 -5.43595 -1.44548 
2004 2 3.31461 -5.17733 -1.16344 
569 1 2.08643 -4.54775 -1.08383 
2017 2 4.16666 -4.83438 -0.883975 
1013 1 4.3991 -5.59684 -1.61516 
452 1 5.42615 -5.41824 -1.3047 
1201 2 -5.16721 -3.84465 -1.69391 
1217 2 -5.73489 -4.2396 -0.992609 
1948 2 -4.22225 -3.70554 -1.19901 
1545 2 -4.40678 -3.48198 -1.97602 
21 1 -4.10244 -4.67211 -1.39769 
844 1 -3.1438 -3.95903 -2.08536 
71 1 -2.29499 -4.18189 -1.14131 
816 1 -3.30112 -4.25645 -1.23252 
1047 2 -1.49178 -4.50202 -2.13237 
986 1 -2.25195 -3.7665 -1.81948 
526 1 -0.739657 -3.44217 -1.2125 
1878 2 -0.190948 -4.41947 -0.80215 
1613 2 0.133921 -4.0098 -1.55525 
1246 2 0.613167 -4.00318 -0.827609 
1753 2 0.922558 -3.71869 -1.53739 
1019 1 2.35983 -4.13926 -1.82448 
286 1 2.9408 -4.03825 -1.16112 
1985 2 2.3471 -3.36424 -0.779761 
1352 2 3.08231 -2.91664 -0.681079 
1521 2 4.59697 -4.35155 -2.0191 
522 1 3.65651 -3.66093 -1.29946 
216 1 3.27459 -4.29832 -0.437961 
1387 2 5.68173 -4.1709 -1.66798 
605 1 4.13876 -3.87291 -0.623501 
1767 2 4.91193 -4.53255 -1.35685 
275 1 -4.72654 -2.76898 -0.940584 
213 1 -5.39696 -2.73987 -1.49045 
1400 2 -3.69523 -3.16255 -2.02191 
285 1 -4.55589 -2.31168 -1.72067 
58 1 -3.70646 -2.29269 -1.36572 
1052 2 -2.49035 -2.60101 -1.99961 
1289 2 -2.53455 -2.81617 -1.24305 
1505 2 -1.65297 -2.42889 -1.47433 
1682 2 -1.85094 -2.04981 -2.49811 
324 1 -1.357 -3.26051 -1.86677 
1391 2 -1.85898 -2.78069 -0.817407 
1069 2 -0.935742 -2.33184 -1.1514 
573 1 -0.465604 -3.11383 -1.8252 
566 1 0.363161 -2.73298 -1.89062 
211 1 0.886028 -2.63904 -1.20938 
1894 2 1.75908 -3.19296 -1.56151 
1947 2 2.74486 -2.95269 -1.53366 
199 1 2.56934 -1.88732 -1.34278 
1708 2 4.56532 -2.14534 -1.80392 
1787 2 4.55426 -2.38016 -0.894217 
1492 2 3.80526 -2.63732 -1.34389 
311 1 5.49974 -3.14962 -1.37042 
314 1 -5.68616 -3.27727 -0.707865 
1978 2 5.35322 -2.04806 -1.22299 
1299 2 -4.87951 -1.40773 -1.32987 
737 1 -5.94786 -0.788034 -0.836141 
848 1 -3.76259 -1.91321 -2.05206 
1972 2 -3.80511 -1.14365 -1.28837 
1940 2 -4.36296 -1.54689 -0.580171 
917 1 -2.94357 -1.87206 -1.19371 
548 1 -2.24604 -1.40358 -1.56175 
630 1 -1.2175 -0.89903 -1.83357 
59 1 -1.72473 -1.51217 -0.945806 
468 1 -0.846819 -1.11234 -1.17578 
1808 2 -0.13904 -2.1311 -0.757041 
1086 2 -0.280991 -1.73764 -1.69376 
1819 2 0.535576 -1.6395 -1.46059 
377 1 1.65299 -2.07853 -1.80336 
2046 2 1.3951 -1.3286 -1.06746 
1057 2 0.854305 -1.78175 -0.570988 
1360 2 2.11608 -0.900799 -0.981649 
691 1 3.27267 -1.3508 -1.98171 
1897 2 2.80668 -0.533994 -1.58568 
626 1 4.06314 -1.02691 -1.6203 
962 1 3.35675 -1.61799 -1.1222 
1758 2 3.1575 -0.724132 -0.776609 
1167 2 -5.68772 -1.78906 -1.23652 
198 1 4.60305 -1.24882 -1.14759 
279 1 5.33239 -0.817359 -1.492 
958 1 -5.16031 -0.472759 -0.998524 
518 1 -5.74959 -0.341685 -1.83901 
876 1 -4.83992 -0.0214504 -1.91798 
1468 2 -5.89424 0.209282 -0.901747 
912 1 -3.66605 0.529302 -1.52431 
472 1 -4.18983 -0.0268298 -1.10662 
1432 2 -3.22385 -0.865738 -0.892381 
921 1 -3.45087 0.213285 -0.82619 
1098 2 -1.98124 -0.485004 -0.752797 
2043 2 -2.61518 -0.399385 -1.36533 
1067 2 -1.39652 -0.132367 -1.27571 
1735 2 -0.814452 0.415929 -1.86504 
447 1 0.48353 -0.234384 -1.95792 
799 1 -0.0269453 -0.793388 -1.21208 
1213 2 -0.48214 0.196375 -0.975778 
1860 2 0.0468432 0.643396 -1.59935 
160 1 0.731374 -0.56821 -1.26589 
886 1 1.3131 -0.0530642 -1.49022 
837 1 1.80542 0.01804 -0.825873 
1314 2 2.64607 -0.262046 -2.59786 
243 1 2.46763 0.420037 -1.19997 
84 1 3.55293 0.788442 -1.04061 
1952 2 4.25099 0.118504 -1.71459 
1680 2 3.68869 -0.203431 -1.26513 
1529 2 4.46596 -0.209107 -0.732431 
1220 2 5.62481 0.551387 -1.7523 
2030 2 4.88729 0.190509 -1.18843 
1724 2 -4.65747 1.39954 -1.69897 
1059 2 -5.22957 0.778689 -1.29658 
2038 2 -3.90122 1.45033 -1.19969 
1305 2 -4.57325 0.956347 -0.705349 
1520 2 -3.43001 1.88155 -1.80112 
357 1 -2.71144 0.811454 -1.30013 
1170 2 -3.03992 1.68906 -1.04498 
1080 2 -1.82127 1.9756 -0.820223 
397 1 -2.13967 1.12582 -1.7869 
919 1 -1.49546 1.14788 -1.25228 
115 1 -0.971478 1.61043 -1.73369 
660 1 -0.463801 1.51112 -1.11898 
1215 2 0.428481 0.402607 -0.73543 
1838 2 1.4796 1.32015 -1.7162 
1297 2 0.586139 1.1675 -1.99084 
1944 2 0.912628 0.950578 -1.15238 
823 1 0.766715 1.88447 -0.883534 
1967 2 2.59398 1.7705 -1.3803 
1017 1 2.86095 0.854098 -1.88744 
1158 2 2.01942 1.40728 -0.921646 
1368 2 3.23637 2.07819 -1.80484 
104 1 4.10119 1.29698 -1.63784 
1866 2 3.61279 1.95492 -0.996924 
920 1 4.76632 1.58251 -2.09878 
16 1 5.82601 1.64638 -1.31552 
351 1 5.05458 1.35932 -1.26218 
783 1 4.55379 1.0128 -0.613877 
298 1 -5.30521 1.82422 -1.03805 
761 1 -5.38302 2.2957 -1.78386 
1662 2 5.83989 3.10006 -1.64059 
1399 2 5.90629 2.61698 -0.731951 
966 1 -4.29993 2.3371 -0.957867 
322 1 -3.69412 2.79008 -1.35909 
460 1 -3.08696 2.74285 -0.683933 
520 1 -2.52521 3.14177 -1.28873 
1092 2 -2.35255 2.25835 -1.44797 
2021 2 -1.15528 2.53719 -1.33804 
111 1 -2.12768 3.04204 -0.543252 
2047 2 -1.29755 2.05028 -0.245498 
585 1 -0.332288 1.89887 -2.3043 
1756 2 -0.600715 2.91376 -1.83272 
910 1 0.0940602 1.97337 -1.45896 
1247 2 -0.695617 2.44809 -0.484155 
1679 2 -0.155731 2.92782 -1.14016 
747 1 1.46028 2.42393 -1.23321 
1107 2 0.938839 3.30106 -1.01671 
896 1 1.95337 2.65213 -1.92647 
143 1 2.72878 2.97846 -1.58984 
181 1 3.3492 3.45266 -2.11826 
828 1 3.12629 2.75692 -0.569654 
906 1 3.62368 3.11519 -1.39818 
1026 2 5.09002 2.84727 -1.85386 
1786 2 4.32115 2.37642 -1.53641 
1330 2 -5.24241 3.21782 -1.16864 
974 1 -4.24508 4.77577 -1.34827 
506 1 -5.71046 4.09993 -1.09829 
1971 2 -3.76679 3.87866 -1.68888 
1669 2 -4.29888 3.60607 -1.02946 
1601 2 -3.08136 3.81199 -0.800598 
733 1 -1.71023 3.4989 -1.76205 
1348 2 -1.87365 4.32993 -0.9999 
86 1 -1.47536 3.40596 -0.897973 
418 1 -0.266659 3.76954 -0.693324 
165 1 -0.841288 3.74758 -1.23204 
905 1 0.083999 4.14056 -1.55839 
1997 2 1.55604 3.60865 -1.36213 
627 1 0.571367 4.08986 -0.638071 
1968 2 1.6834 3.40278 -0.383196 
1913 2 2.39075 3.69922 -0.927401 
1868 2 3.18318 4.16515 -1.37144 
1405 2 4.02612 4.49433 -1.13826 