ITEM: TIMESTEP
13800
ITEM: NUMBER OF ATOMS
2048
ITEM: BOX BOUNDS pp pp pp
-5.9451865305519274e+00 5.9451865305519274e+00
-5.9451865305519274e+00 5.9451865305519274e+00
-5.9451865305519274e+00 5.9451865305519274e+00
ITEM: ATOMS id type x y z 
435 1 5.783 5.82574 -5.48204 
1849 2 -5.49343 -5.00711 -4.45998 
1633 2 -5.09489 -4.73032 -5.44904 
2016 2 -4.66257 -4.92348 -4.26927 
440 1 -5.30367 -5.62277 5.83892 
554 1 -4.35048 -5.39302 5.75436 
333 1 -4.08154 -5.53115 -5.39215 
473 1 -4.83958 -5.84703 -5.2298 
91 1 -2.74316 -4.67371 -5.70619 
1138 2 -2.32478 -5.76632 -5.94232 
247 1 -2.54234 -5.21429 -4.37026 
1291 2 -1.04861 -5.70068 -4.77012 
416 1 -2.24434 -4.83428 -5.15133 
1958 2 -1.61762 -5.74289 -5.4276 
2029 2 -0.819974 -5.15978 -5.75736 
1035 2 -0.28544 -5.25503 -4.90366 
1429 2 0.571217 -4.86001 -5.16314 
1746 2 -0.00214192 -4.68786 -5.92679 
503 1 1.26164 -5.2989 5.83385 
1709 2 0.920424 -4.34821 -5.91354 
673 1 0.743666 5.84814 -4.16812 
648 1 2.01184 -5.29926 -5.47943 
49 1 2.72534 -4.8805 -5.71964 
64 1 2.01004 -4.78673 5.52401 
57 1 4.15968 -4.55072 -4.72524 
1875 2 3.41519 -5.85813 -5.82849 
1799 2 5.97579 -4.96995 -5.39335 
1192 2 4.30086 -5.68847 -4.98665 
1931 2 4.8336 -5.18434 -5.43895 
511 1 -5.77858 -3.74788 -5.29521 
1663 2 -4.44209 -4.51937 -4.94295 
273 1 -4.69136 -3.35588 -5.09557 
1103 2 -4.38808 -4.28012 -5.93155 
1602 2 -3.06296 -3.66992 -5.78576 
1261 2 -3.79025 -3.95638 -5.37655 
530 1 -2.00242 -4.19665 5.72257 
1231 2 -2.63287 -3.79253 -5.00455 
2009 2 -1.69913 -3.42214 -5.17356 
227 1 -0.831622 -4.21451 -4.9609 
924 1 -1.5221 -4.4442 -5.43919 
819 1 -0.445487 -3.72889 -5.56685 
413 1 0.181097 -3.89511 -4.92526 
136 1 0.665562 -3.42503 -5.37562 
1790 2 1.56135 -3.93337 5.55456 
1678 2 1.50618 -4.4517 -5.0314 
547 1 1.3074 -3.31049 -4.77625 
1737 2 2.68027 -4.07407 -5.02055 
1705 2 1.98419 -4.037 -5.58681 
1232 2 3.87214 -3.60984 -4.76292 
1902 2 4.41218 -3.6944 -4.04189 
19 1 3.75184 -4.46128 -5.65207 
1129 2 4.64006 -3.16849 -4.83649 
223 1 5.35936 -3.89489 -5.23354 
496 1 4.61838 -4.04187 -5.63928 
373 1 -5.90791 -3.98348 -4.46297 
1588 2 -4.96659 -2.10262 -5.69555 
1937 2 -5.51514 -2.6211 -4.98673 
1243 2 -4.56382 -2.12187 -4.94831 
269 1 -3.55633 -2.54219 5.83851 
353 1 -5.1642 -3.35213 -5.71786 
218 1 -3.81985 -2.90578 -5.22171 
664 1 -3.04733 -2.46721 -5.35698 
387 1 -2.39916 -2.03524 -5.9277 
196 1 -2.25273 -2.52167 -4.97944 
151 1 -1.74329 -2.14518 -5.38552 
1379 2 -1.24166 -3.05923 -5.7813 
35 1 -1.11126 -1.95482 -4.76778 
1255 2 -0.304517 -2.62605 -5.34912 
1370 2 -0.829765 -3.01815 -4.86992 
1763 2 -0.11085 -2.94165 -4.50602 
1909 2 0.501268 -2.42494 -5.23109 
1495 2 -0.563716 -2.50356 5.73338 
1525 2 0.892048 -2.49959 -4.37623 
1820 2 1.16355 -2.01279 -5.63591 
1190 2 1.57816 -2.17042 -4.95255 
1 1 1.14284 -2.97321 5.83232 
939 1 1.78525 -3.07428 -5.40236 
277 1 3.16512 -2.69194 -5.03449 
485 1 3.79541 -2.21239 -5.32416 
1070 2 4.14867 -3.11734 -5.57058 
904 1 4.22814 -2.26772 -4.53661 
1475 2 4.94678 -2.69645 -5.74933 
1465 2 5.42911 -2.92184 -4.92822 
1872 2 -5.90881 -2.40414 -5.75611 
833 1 -4.29559 -0.723966 -4.9074 
205 1 -4.95188 -1.25977 -4.60955 
161 1 -4.20016 -1.05751 -4.05756 
1745 2 -3.49477 -1.59104 -4.81416 
1341 2 -4.00115 -1.73733 -5.54065 
214 1 -3.64638 -0.603473 -4.38705 
1733 2 -3.06108 -1.33311 -5.53254 
1809 2 -2.02581 -1.12767 -5.25764 
1345 2 -1.41091 -0.64265 -5.80628 
1478 2 -1.71274 -1.30945 -4.31855 
1572 2 -1.12794 -0.823783 -4.93594 
595 1 -1.25092 -1.70793 -5.94221 
830 1 -0.49644 -1.55424 -5.35883 
8 1 0.210956 -1.45817 -4.90968 
768 1 0.827452 -1.01366 -5.2664 
674 1 1.04957 -1.3262 -4.56443 
1964 2 2.27776 -1.77376 -5.31464 
1775 2 3.46703 -1.23475 -5.28775 
609 1 4.79529 -1.92199 -5.04626 
1224 2 4.24626 -0.674215 -5.70911 
1332 2 4.4495 -0.91603 -4.86119 
2036 2 3.85503 -1.33118 -4.26728 
771 1 -5.56036 -1.25042 -5.32165 
740 1 5.7499 -1.78416 -4.60018 
1623 2 5.40174 -0.781313 -4.45201 
1498 2 -5.13499 0.103442 -4.93832 
1346 2 -4.37927 0.207497 -4.3574 
505 1 -3.32907 -0.408191 -5.22622 
2028 2 -4.02266 0.529996 -5.12832 
1256 2 -3.0224 0.939096 -5.58395 
451 1 -1.84297 0.210138 -5.26626 
701 1 -2.50072 -0.239103 -4.73137 
55 1 -3.33225 -0.0400133 5.46531 
374 1 -1.56751 0.62953 5.87302 
827 1 -0.940904 0.545306 -5.17005 
1975 2 -0.461026 -0.291366 -5.60677 
1573 2 -0.539159 -0.888103 -4.20771 
1223 2 0.0687286 -0.466308 -4.90767 
1963 2 0.732289 0.120235 -5.25798 
1180 2 1.68289 0.0382136 -4.51422 
31 1 1.82948 -0.81428 -5.09658 
1777 2 0.867746 -0.362352 -4.33016 
195 1 3.40619 -0.339081 -4.81222 
138 1 2.65932 -0.336194 -5.29759 
1785 2 2.35995 0.620712 -4.88312 
560 1 2.54958 -0.735398 -4.58806 
758 1 3.93917 0.141865 -5.27948 
299 1 4.32248 -0.0821364 -4.4387 
1634 2 5.90359 -0.359099 -5.20078 
1494 2 5.0869 -0.50156 -5.38142 
656 1 -4.90125 1.39136 -5.04694 
338 1 -4.24794 1.29888 -4.56479 
420 1 5.19524 0.800913 -5.72211 
752 1 -4.43207 1.81686 -5.62234 
1343 2 -3.90162 0.963771 5.9145 
190 1 -3.73479 1.63218 -5.10568 
1736 2 -2.24087 1.18827 -5.01551 
1050 2 -1.66112 1.65892 -5.81239 
1058 2 -2.49438 1.42163 5.89265 
212 1 -0.135033 1.03785 -5.51405 
1054 2 -1.24157 1.52092 -4.90736 
1063 2 -1.03522 2.05235 5.74261 
842 1 0.239337 0.984125 -4.92055 
408 1 0.672286 0.493682 -3.98276 
1364 2 -0.569753 1.87071 -5.49511 
156 1 0.764694 1.43374 -5.75482 
551 1 1.37379 1.41121 -5.10096 
760 1 2.01662 1.5755 -4.51807 
1470 2 3.07286 0.697875 -4.47412 
1845 2 3.56883 1.14289 -5.03504 
1226 2 3.73396 1.55473 -5.79181 
1497 2 4.35587 1.53735 -5.28791 
1204 2 4.20923 1.13451 -4.13423 
60 1 4.72711 0.393957 -4.97424 
1431 2 5.18068 1.87949 -5.61249 
1068 2 4.89871 1.39106 -4.63683 
1403 2 5.58943 1.8755 -4.92829 
1716 2 -4.64875 2.77277 -5.41873 
1620 2 -4.21748 3.15749 5.90611 
1175 2 -3.63162 3.13798 -5.31623 
697 1 -3.59987 2.25087 5.94592 
820 1 -2.83448 2.35165 -5.46752 
494 1 -2.25066 2.6879 5.70774 
982 1 -1.97587 2.52452 -5.24386 
852 1 -1.52967 3.06071 -5.89905 
1884 2 0.267334 2.33708 -5.49982 
310 1 -1.06903 2.83677 -5.15994 
1653 2 0.79163 2.34051 -4.74297 
561 1 -0.106113 3.28642 -5.12091 
1506 2 1.64405 2.70243 -5.05646 
1769 2 1.72888 2.68185 -4.1667 
895 1 2.43266 2.03874 -5.20571 
1011 1 3.16102 1.9927 -4.52943 
1628 2 2.43718 3.01923 -5.09733 
621 1 4.25805 2.38026 -4.67605 
574 1 3.63517 2.28508 -5.14259 
869 1 3.99672 2.71101 -5.93962 
396 1 4.63402 2.78684 -5.40665 
178 1 5.16613 3.31452 5.86849 
204 1 5.7199 3.26573 -5.35404 
1810 2 -5.83655 2.34969 -5.61199 
923 1 -5.01578 3.75848 -5.27554 
644 1 -5.60778 3.76863 -5.81271 
45 1 -4.47115 4.09762 -5.81998 
797 1 -3.93165 4.50256 5.48542 
92 1 -3.83293 4.20245 -5.19908 
687 1 -3.17582 4.55606 -5.80884 
1824 2 -2.18272 3.67685 -5.49429 
1096 2 -2.40403 3.88102 5.61082 
1869 2 -3.08785 3.53757 -5.77266 
1336 2 -1.36304 4.06751 -5.61884 
1161 2 -0.755705 4.03024 -4.71313 
1228 2 -2.21416 4.34692 4.53454 
1596 2 -1.55606 4.33699 5.31105 
1145 2 -0.423958 4.42941 -5.36652 
593 1 0.309141 3.57233 -5.85668 
56 1 0.846423 3.60703 -5.08146 
709 1 1.62546 3.93924 -5.183 
1979 2 2.78389 3.32202 -5.82402 
716 1 2.47324 4.24857 -5.33645 
1274 2 3.25777 3.35917 -5.10522 
884 1 2.97153 4.29599 -4.42129 
1342 2 3.58805 3.74272 -5.85774 
1618 2 4.23629 3.59348 -5.12631 
1779 2 4.59837 4.25119 -5.67773 
1073 2 5.34087 4.17839 -5.02809 
412 1 -5.5605 5.98306 -4.85518 
1640 2 5.83573 4.78756 -5.61488 
1088 2 -4.61883 5.0443 -5.67525 
1365 2 -3.11982 5.71543 -5.6746 
1353 2 -3.65841 5.35144 -5.32642 
1038 2 -3.6072 5.19845 -4.51115 
729 1 -2.44959 4.95452 5.50396 
1526 2 -2.45826 5.77924 -5.15451 
638 1 -2.298 4.84631 -5.66 
1542 2 -1.8267 -5.96837 -4.42114 
87 1 -0.779633 5.22216 -4.83015 
237 1 -0.106256 5.15178 -4.29024 
495 1 0.261408 5.72933 -5.00174 
1306 2 0.337433 4.81328 -5.89471 
528 1 -0.192815 5.65732 -5.56972 
628 1 1.07788 -5.67272 -5.20581 
1039 2 1.09236 5.28789 5.80207 
1033 2 1.98251 5.29326 -5.01588 
1093 2 1.90464 5.50713 -5.77463 
1593 2 2.21151 5.0381 -4.22965 
777 1 3.53837 4.62091 -5.2006 
946 1 4.39168 4.94853 -5.0366 
501 1 3.99512 4.46731 -4.43734 
1955 2 2.80584 5.37286 -5.20742 
1704 2 3.4717 5.76563 -4.96669 
825 1 5.22832 5.17066 -4.73972 
699 1 4.84033 5.64833 -5.56559 
1418 2 -5.42753 -5.30369 -3.55081 
1312 2 -4.50068 -5.20426 -3.48153 
1773 2 5.61056 -5.47894 -3.91454 
14 1 -4.31658 -5.76671 -4.57838 
1394 2 -3.72876 -4.83055 -3.92693 
805 1 -3.20995 -5.27306 -5.04578 
274 1 -2.34942 -5.36614 -3.58277 
260 1 -2.4739 -5.86596 -3.02422 
855 1 -1.43325 -4.73635 -4.52354 
453 1 -1.67464 -4.9032 -3.54089 
1151 2 -1.36614 5.7897 -3.50631 
902 1 -0.825356 -4.84629 -3.76025 
1029 2 -0.574592 5.90798 -3.12581 
1334 2 -0.529756 -5.7126 -4.00914 
1260 2 0.318884 -5.18388 -4.0958 
1486 2 1.1279 -4.75547 -4.31218 
1082 2 0.964212 -5.2181 -3.40328 
575 1 1.52488 -5.7325 -4.5479 
1592 2 2.03929 -4.51423 -4.27918 
425 1 2.2927 -5.77254 -3.71457 
1887 2 1.8537 -4.91589 -3.48939 
667 1 3.99155 -5.23455 -4.08723 
180 1 3.3249 -5.05728 -4.98361 
1358 2 5.42499 -5.22036 -4.70022 
809 1 4.9649 -4.34503 -4.66985 
131 1 4.62023 -4.87528 -3.71732 
1272 2 4.96215 -5.85434 -4.43992 
1604 2 5.3369 5.83418 -3.08408 
991 1 -5.11774 -3.85466 -4.52706 
878 1 -4.91788 -4.00874 -3.6699 
864 1 -5.99386 -4.82514 -2.70862 
1548 2 -3.57483 -4.28155 -4.59922 
483 1 -4.38822 -3.49293 -4.21837 
524 1 -3.7244 -3.24085 -4.33443 
1079 2 -2.90226 -4.38134 -3.96568 
1477 2 -2.12523 -3.90827 -4.20849 
1452 2 -1.91524 -3.96997 -3.20789 
313 1 -3.20015 -3.27897 -3.56953 
1581 2 -1.29283 -3.58636 -4.29226 
1848 2 -1.10357 -3.88966 -3.48914 
467 1 -0.189895 -4.26903 -4.22348 
782 1 0.386508 -4.26933 -3.68182 
1645 2 -0.57274 -3.30222 -3.92469 
1401 2 -0.0417644 -3.44339 -3.19614 
122 1 0.785817 -3.81257 -4.25799 
1001 1 2.04844 -3.40116 -4.12903 
1836 2 3.19585 -3.95902 -4.38204 
1198 2 2.77902 -4.40978 -3.65479 
639 1 2.23757 -3.70004 -2.9763 
2010 2 5.26799 -3.18859 -4.1084 
1844 2 3.75276 -4.30609 -3.72582 
1655 2 5.93764 -3.45962 -3.3228 
339 1 5.27049 -4.37099 -3.94308 
1657 2 -5.79168 -2.96446 -4.11348 
1664 2 -5.04468 -2.71685 -4.28751 
1871 2 -5.17322 -2.95693 -3.45627 
1924 2 -4.40819 -2.36141 -3.87094 
1911 2 -3.75052 -2.08826 -4.27789 
1097 2 -2.98767 -1.98835 -4.08261 
236 1 -2.84229 -2.96089 -4.37654 
599 1 -1.92016 -2.93857 -3.60171 
657 1 -1.88742 -2.48236 -4.2555 
597 1 -0.950654 -2.4005 -3.89605 
573 1 -0.00340742 -2.54563 -2.58607 
1555 2 0.451822 -2.98054 -3.65599 
1083 2 1.61309 -2.49638 -3.79336 
1982 2 1.02621 -3.07328 -3.06078 
403 1 2.45287 -3.06194 -4.82001 
1676 2 2.28572 -2.19221 -4.27788 
471 1 2.93811 -3.31193 -3.58607 
1326 2 2.47823 -2.38536 -3.41821 
602 1 3.52264 -2.86926 -4.25209 
140 1 4.38168 -2.60357 -3.7126 
999 1 5.05227 -2.12659 -4.1017 
784 1 5.74337 -2.09088 -3.52348 
66 1 -5.37715 -1.60691 -3.92928 
291 1 -4.65244 -1.57167 -3.52842 
1826 2 -5.29704 -0.82884 -3.0608 
717 1 -3.3569 -1.09477 -3.42113 
704 1 -2.9246 -0.796101 -4.00934 
1271 2 -2.57891 -1.48312 -4.60552 
1867 2 -2.73832 -2.09153 -3.23589 
37 1 -2.50408 -0.810851 -3.22249 
1908 2 -2.14924 -1.70055 -3.75405 
1537 2 -1.65093 -1.66267 -3.07716 
1296 2 -1.08001 -1.36849 -3.66102 
1006 1 -0.227325 -1.90245 -4.33326 
11 1 -0.241076 -2.32507 -3.28896 
1870 2 -0.320464 -1.0112 -3.37785 
421 1 0.391392 -1.7655 -3.82666 
427 1 1.22374 -1.67557 -3.49849 
1259 2 2.97113 -1.74818 -4.63878 
116 1 2.72845 -0.975437 -3.67829 
866 1 1.74753 -1.28967 -4.03096 
1363 2 3.20807 -1.96578 -3.79248 
640 1 3.07744 -1.28961 -2.71977 
2048 2 4.19965 -1.64356 -3.41371 
1163 2 4.83942 -1.25645 -3.92035 
2001 2 5.881 -0.778217 -3.75607 
1830 2 -5.27115 -0.33343 -4.19014 
1754 2 -4.70125 -0.311957 -3.51431 
1184 2 -2.6409 0.595156 -4.186 
1111 2 -3.53344 0.288698 -3.99661 
1962 2 -3.20457 0.604776 -4.76501 
749 1 -2.07862 -0.2811 -4.03676 
1643 2 -2.35895 0.483179 -3.437 
234 1 -1.58482 -0.395166 -3.30492 
517 1 -0.156669 0.571595 -4.25893 
789 1 -1.30367 0.00695249 -4.46809 
615 1 -0.754218 0.106096 -3.81861 
1644 2 0.403634 -0.761915 -3.87448 
80 1 0.145094 0.107653 -3.39942 
1673 2 1.52342 -0.201756 -3.60755 
1502 2 2.15693 -0.248432 -2.9733 
1021 1 1.24574 0.610226 -3.23388 
1456 2 0.711199 -0.816863 -3.14133 
1412 2 2.38064 0.224998 -4.03746 
700 1 3.41778 -0.477664 -3.93474 
715 1 4.41431 -0.35148 -3.45423 
302 1 5.53621 0.637363 -4.55108 
469 1 4.98318 0.0805909 -3.8741 
818 1 -5.96522 0.480867 -3.8977 
872 1 5.41016 -0.147131 -3.11644 
32 1 -5.58541 0.943402 -4.60897 
915 1 5.87034 0.975889 -5.36581 
1132 2 -5.7199 2.00483 -4.30715 
1877 2 -5.26626 1.80545 -3.47079 
230 1 -3.72358 1.27456 -4.00475 
164 1 -2.91553 1.55596 -3.8123 
278 1 -4.92722 1.0874 -4.00971 
689 1 -2.97713 1.76064 -4.63985 
489 1 -2.04705 1.73371 -3.54791 
1550 2 -1.82003 0.940373 -4.24846 
1149 2 -0.954085 1.26318 -4.07756 
1436 2 -1.39393 0.834368 -3.43177 
1386 2 -0.180203 1.30028 -3.47567 
1310 2 -0.267074 1.86078 -4.58888 
254 1 0.979643 1.0349 -4.51858 
594 1 1.64107 1.0614 -3.82758 
1187 2 0.679618 1.54824 -3.03688 
894 1 2.62759 1.54453 -4.02804 
874 1 3.25769 1.57259 -3.55817 
1910 2 3.58883 0.556156 -3.88284 
731 1 4.48632 1.98648 -3.22357 
1861 2 4.83525 1.10616 -3.58396 
1654 2 -5.9327 1.32576 -3.3653 
1172 2 5.51964 1.44574 -4.01849 
1377 2 -5.18417 2.35727 -4.93695 
188 1 -5.46882 3.30318 -4.69677 
69 1 -4.85612 3.13464 -3.85116 
631 1 -5.89913 2.95676 -4.06909 
1728 2 -4.66088 2.26499 -4.03368 
1482 2 -4.24963 2.55654 -4.80683 
1142 2 -3.34906 2.7979 -4.45935 
1625 2 -2.67398 3.34879 -4.86678 
1794 2 -2.09674 3.27664 -4.20697 
903 1 -2.19911 1.96761 -4.44876 
1015 1 -1.48662 2.44766 -4.53688 
1607 2 -1.66921 3.18517 -3.48025 
686 1 -1.19977 2.13569 -3.73178 
843 1 0.410076 3.10067 -4.21402 
208 1 -0.506814 2.81047 -4.23229 
301 1 0.234191 2.77575 -3.4552 
1683 2 0.333738 1.74438 -3.94762 
2020 2 1.14351 2.10474 -3.75904 
885 1 1.25406 3.60179 -4.32757 
2039 2 2.663 2.93936 -4.32807 
1999 2 2.39429 2.38351 -3.56053 
1214 2 3.36528 2.85779 -3.88589 
171 1 3.99248 2.08356 -3.81268 
1977 2 4.48923 3.33259 -3.72274 
726 1 5.22876 2.79564 -4.65614 
702 1 4.80028 2.35666 -4.08427 
1048 2 -5.36198 4.79489 -4.95923 
1349 2 -5.93966 4.33755 -4.41621 
1575 2 -4.92386 4.63924 -4.0364 
755 1 -3.24373 3.99984 -4.40885 
676 1 -4.52408 3.66968 -4.5336 
446 1 -3.94438 3.53342 -3.91824 
1275 2 -4.23963 4.35729 -3.26175 
577 1 -2.23208 4.29407 -4.16589 
632 1 -2.7405 4.55476 -4.89832 
1268 2 -1.5528 3.73923 -4.89305 
1689 2 -0.92212 3.15869 -2.98385 
221 1 -1.88909 4.73309 -4.87434 
612 1 -1.59377 4.33259 -3.50565 
1926 2 -1.08316 3.60813 -3.8988 
1354 2 0.520614 4.5466 -4.9215 
1372 2 0.0484928 4.13017 -4.32693 
1183 2 0.759522 4.28387 -3.8304 
1071 2 1.47869 4.28209 -2.92568 
478 1 1.88911 3.54838 -3.63145 
76 1 2.12105 3.86532 -4.44006 
34 1 2.87231 3.83341 -3.59963 
256 1 3.52984 4.18092 -3.62649 
1562 2 3.78191 3.36477 -4.30733 
394 1 2.58624 3.37571 -2.81556 
1439 2 4.82755 3.78346 -4.42839 
1636 2 5.56562 3.87719 -3.78606 
775 1 5.05721 4.54047 -3.01654 
346 1 -5.03759 5.73924 -3.99169 
662 1 5.96213 5.51096 -4.2748 
993 1 -5.48419 5.09269 -3.55241 
1413 2 -4.41745 5.05855 -4.68419 
1335 2 -3.83291 4.73318 -3.88334 
255 1 -4.15368 5.75925 -3.50544 
1757 2 -2.75604 5.47817 -4.38051 
428 1 -1.35422 5.20279 -5.4299 
340 1 -1.21198 4.78788 -4.20709 
1329 2 -2.16903 5.36833 -3.62558 
123 1 -0.640603 4.9957 -3.64388 
568 1 -0.990763 4.52394 -2.95384 
1668 2 1.29775 4.78929 -4.4575 
2040 2 1.09393 5.13356 -5.19502 
82 1 0.780878 5.18158 -3.59133 
959 1 1.51798 5.75526 -3.78911 
564 1 0.149174 5.06262 -3.10901 
442 1 2.46946 -5.34172 -4.68551 
1042 2 1.85172 4.66011 -3.62137 
653 1 4.31159 4.30211 -3.36341 
1691 2 3.00139 5.3188 -4.27358 
1612 2 4.02184 5.71332 -4.25778 
1559 2 3.44568 5.33379 -3.67208 
835 1 3.83151 3.8632 -2.7981 
443 1 4.72632 4.75006 -3.97203 
918 1 5.45558 4.9626 -3.77913 
1534 2 -4.89583 -5.60661 -2.76941 
666 1 -5.12847 -4.50057 -2.83776 
1489 2 -5.86468 -5.84403 -3.01851 
1918 2 -5.31978 5.94955 -2.09484 
1285 2 -3.87547 -5.29832 -2.72118 
1197 2 -3.24475 -4.90422 -3.2382 
508 1 -3.36495 -5.63966 -4.23062 
1047 2 -2.69637 -5.07991 -2.09949 
295 1 -2.36396 5.99496 -2.20082 
934 1 -1.64269 -5.34201 -2.59854 
5 1 -0.825817 -5.05076 -2.74891 
337 1 -1.22319 -5.6896 -1.83344 
326 1 -0.0719285 -4.76388 -3.04228 
328 1 0.326636 -4.88743 -2.3139 
107 1 0.887966 -4.33695 -2.91268 
1338 2 0.346192 -5.71652 -3.27066 
1319 2 1.51756 -5.46061 -2.78949 
1928 2 0.594111 -5.88503 -2.50408 
1563 2 3.05861 -4.5917 -2.79704 
1528 2 2.36144 -4.99193 -2.82435 
487 1 3.1294 -5.67414 -3.21276 
955 1 3.12932 -5.32163 -4.02148 
422 1 4.03702 -5.79611 -2.33185 
847 1 4.06571 -5.40197 -3.04171 
284 1 5.08472 -5.01772 -3.12788 
1013 1 5.49164 -5.20265 -2.09073 
280 1 -5.89543 -4.4378 -3.57811 
1545 2 -4.97686 -3.42066 -2.42958 
1201 2 -5.80702 -3.79892 -2.59068 
411 1 -4.11737 -4.33993 -2.77814 
504 1 -4.03981 -3.87632 -3.59477 
21 1 -3.38773 -4.09752 -2.05879 
1807 2 -2.53802 -4.48458 -3.00063 
246 1 -3.22919 -3.72788 -2.89755 
1280 2 -1.41254 -4.20954 -2.62985 
1402 2 -1.97145 -4.39055 -2.05839 
1878 2 -0.998181 -4.35226 -1.77788 
1580 2 -0.0928632 -3.91865 -1.92367 
1457 2 -0.589138 -3.8396 -2.63203 
938 1 1.42904 -3.86043 -3.58611 
20 1 1.2412 -4.66869 -1.99538 
321 1 1.80753 -4.19479 -2.38629 
1991 2 0.514517 -3.4644 -2.52042 
914 1 2.96545 -3.53707 -2.63743 
550 1 2.5785 -3.97485 -1.94336 
1521 2 3.86146 -4.47281 -2.81534 
1240 2 4.84266 -3.71364 -3.31629 
1530 2 4.53127 -4.28619 -2.38443 
928 1 3.72117 -3.36696 -2.51092 
1767 2 5.22215 -4.00875 -2.76608 
2002 2 5.6789 -4.27203 -1.74433 
968 1 -5.34746 -2.03554 -3.01258 
1400 2 -4.2386 -2.97449 -3.00815 
592 1 -4.55343 -2.16133 -2.47607 
2007 2 -3.67988 -2.44144 -3.35466 
1289 2 -3.19939 -2.44768 -2.6044 
1052 2 -2.28454 -2.13955 -2.57311 
388 1 -1.26149 -2.61463 -3.13615 
1682 2 -2.16388 -2.43263 -1.81454 
753 1 -2.49109 -3.11838 -2.98647 
677 1 -1.63016 -3.18091 -2.3475 
526 1 -0.766438 -2.89154 -2.54347 
998 1 0.890669 -2.36481 -1.99861 
1533 2 1.88454 -2.72644 -2.88405 
1738 2 1.31923 -3.28706 -2.21161 
705 1 1.53571 -1.9093 -2.2879 
1123 2 2.8916 -2.3813 -2.49936 
1973 2 4.1642 -2.06939 -2.45909 
1030 2 3.61017 -2.2465 -3.0294 
754 1 3.69429 -3.19698 -3.23452 
311 1 4.59282 -3.06914 -2.5505 
562 1 5.14495 -2.58181 -3.1444 
296 1 5.68104 -2.71536 -2.48222 
213 1 5.24451 -3.21062 -1.91073 
1792 2 -4.42946 -0.723087 -2.68397 
1641 2 5.88666 -1.40142 -2.5631 
767 1 -3.81546 -1.52741 -2.84331 
848 1 -3.68002 -1.82958 -1.9942 
419 1 -2.93264 -1.29369 -2.44803 
1972 2 -3.98581 -0.815381 -1.72385 
117 1 -2.50171 -1.42394 -1.6753 
1086 2 -0.757298 -1.81031 -1.98568 
898 1 -2.08783 -0.805693 -2.45659 
1781 2 -1.53388 -2.02926 -2.3417 
59 1 -1.43701 -1.00144 -1.82291 
1635 2 -0.586575 -1.48029 -2.79301 
1819 2 0.0718594 -1.67576 -1.90456 
1517 2 0.253636 -1.13749 -2.51829 
287 1 0.73788 -2.05897 -2.89658 
581 1 1.99698 -1.55257 -3.0587 
2027 2 1.07476 -1.04666 -2.06802 
106 1 2.42209 -1.51876 -2.13925 
125 1 3.59902 -1.24319 -2.04266 
1568 2 2.20026 -0.557546 -1.90985 
846 1 3.78027 -0.77442 -3.0238 
334 1 4.34628 -0.994025 -2.2191 
1350 2 4.90867 -1.73985 -2.74238 
109 1 4.80521 -0.425708 -2.7179 
1110 2 5.27573 -1.19702 -3.20438 
1279 2 5.37579 -1.89735 -1.88356 
692 1 -5.17229 0.479142 -3.36347 
654 1 -4.99229 -0.0977425 -2.00098 
824 1 -4.55903 0.521038 -2.58438 
2035 2 -3.94074 -0.230799 -3.17565 
912 1 -3.74135 0.684169 -2.34733 
1589 2 -3.48845 -0.393067 -2.39651 
1876 2 -3.09013 0.0273712 -3.14043 
1206 2 -2.46553 0.113159 -2.49719 
1834 2 -1.86532 0.471813 -2.83203 
1761 2 -1.20693 0.39315 -2.36318 
799 1 -1.1412 -0.648548 -2.56202 
625 1 0.564517 0.231408 -2.7719 
499 1 -0.661749 -0.103156 -3.09394 
630 1 -0.0839161 -0.205293 -2.38317 
963 1 1.76988 0.687921 -2.62094 
1832 2 1.52117 -0.693155 -2.88371 
776 1 1.18217 0.123163 -2.2063 
2008 2 2.73999 0.132985 -3.30972 
1696 2 2.88475 -0.175012 -2.46633 
464 1 2.68089 0.684031 -1.9915 
1953 2 4.20238 0.684043 -3.19764 
1320 2 3.46005 0.203787 -2.84872 
1952 2 4.7613 0.523954 -2.31385 
241 1 5.59886 -0.592214 -2.13626 
297 1 -5.62083 -0.0394 -2.67495 
1986 2 -5.56419 1.19129 -2.71129 
1720 2 -4.36403 1.89147 -2.99956 
1724 2 -4.95325 1.47617 -2.41464 
900 1 -4.28913 0.903265 -3.34657 
1282 2 -3.68569 2.01113 -2.38041 
613 1 -3.44911 1.09674 -3.01858 
259 1 -2.72493 1.31431 -2.89176 
189 1 -1.39601 1.73492 -2.87673 
397 1 -2.07209 1.44643 -2.27654 
1104 2 -0.591743 0.952722 -2.87049 
2022 2 -0.426955 0.614252 -1.91945 
1893 2 0.0860734 1.07383 -2.5489 
585 1 -0.513836 1.86165 -2.35086 
1838 2 1.51997 1.63723 -2.33776 
1944 2 1.97091 1.40856 -1.67104 
1297 2 0.752957 1.23472 -2.05069 
50 1 2.33664 1.09343 -3.27531 
90 1 2.93456 1.16262 -2.71198 
1340 2 1.73104 2.05774 -3.10165 
232 1 3.93272 1.52169 -2.85119 
1017 1 3.56921 1.12337 -2.06592 
1858 2 5.19921 0.978701 -2.91827 
944 1 5.16411 2.0034 -2.67554 
1803 2 5.73762 0.720749 -2.21351 
194 1 5.56208 1.70101 -1.91236 
811 1 -5.78873 2.23903 -2.49026 
7 1 -5.34965 2.72901 -3.16832 
926 1 -4.851 2.73634 -2.42939 
1512 2 -3.91403 2.2195 -3.90075 
369 1 -4.26716 3.14001 -3.06967 
989 1 -3.56636 3.21326 -2.61657 
1485 2 -2.798 2.70235 -3.83951 
1938 2 -3.33293 2.31272 -3.20854 
1415 2 -2.14609 2.61536 -3.09611 
1476 2 -1.58932 2.77658 -2.44173 
719 1 -0.504724 2.26357 -3.13122 
134 1 0.366316 2.37635 -2.60886 
1756 2 -0.383902 3.11964 -2.08984 
910 1 0.658563 2.18375 -1.72245 
240 1 0.99148 3.11855 -3.52828 
937 1 1.15919 2.75082 -2.56582 
1642 2 3.17082 2.48786 -2.93176 
896 1 1.67495 3.16803 -2.95296 
828 1 2.76261 2.82546 -1.34068 
1522 2 4.08386 2.97297 -3.02035 
1461 2 3.61227 2.34032 -2.25618 
1026 2 4.42126 2.66336 -2.23918 
1994 2 5.07772 3.23556 -2.99354 
381 1 5.49524 2.36378 -3.43233 
1971 2 -5.41972 4.01939 -3.66657 
1669 2 -4.81707 3.97728 -2.69183 
1278 2 -5.94737 3.62497 -2.98515 
1287 2 -4.10509 4.1792 -2.30575 
1325 2 -3.49725 4.42737 -2.8669 
250 1 -3.22522 3.58544 -3.39165 
772 1 -2.59572 3.49277 -2.58856 
17 1 -2.20172 4.00577 -3.08853 
1992 2 -3.39045 4.10301 -1.88506 
733 1 -1.46342 3.94844 -2.55498 
1304 2 -0.257248 3.97326 -3.52865 
1616 2 0.0550714 3.46458 -2.65608 
86 1 -0.889962 4.10722 -1.93916 
1981 2 0.725141 4.01016 -2.94277 
1679 2 0.567317 3.37763 -1.91147 
1968 2 1.85008 4.03059 -1.9111 
1997 2 1.13295 3.83293 -2.24665 
448 1 3.05224 3.28649 -2.05969 
262 1 4.7126 3.96505 -2.31382 
1333 2 5.50498 3.19458 -2.17112 
370 1 5.56947 4.37916 -2.28511 
579 1 -5.92949 4.83789 -2.83339 
952 1 -5.31626 4.93761 -2.23103 
342 1 -4.83491 5.17358 -2.94706 
1008 1 -3.34294 5.77483 -3.27879 
589 1 -4.00385 5.38138 -2.66868 
1957 2 -2.92395 4.74962 -3.47719 
1601 2 -2.78114 4.59561 -2.39362 
1236 2 -2.11317 5.01479 -2.84692 
1339 2 -1.79633 4.80903 -2.08268 
1571 2 -1.2212 5.43203 -2.5432 
1818 2 -0.260096 5.83341 -2.34276 
836 1 -0.163092 4.66105 -2.41667 
1503 2 -0.0953728 5.43941 -1.56371 
652 1 1.54213 5.35484 -2.98891 
736 1 0.790368 4.96126 -2.42306 
1499 2 2.70547 4.87785 -3.34598 
1764 2 3.52066 4.97343 -2.62569 
41 1 2.38212 5.69842 -2.87378 
490 1 1.62078 5.11185 -1.9887 
1714 2 4.15022 5.39946 -3.20422 
1425 2 4.71537 5.80067 -3.62175 
2000 2 5.7326 5.67912 -2.19505 
1318 2 4.75794 5.43465 -2.57713 
182 1 -5.46959 -4.95199 -1.71062 
452 1 -5.66727 -5.41691 -1.00766 
1404 2 -3.47715 -5.35708 -1.82996 
1122 2 -4.2953 -5.74372 -2.03421 
724 1 -4.73896 -5.02962 -1.27841 
1783 2 -2.42616 -5.08414 -1.27177 
1454 2 -3.12297 -5.5909 -1.05466 
229 1 -2.73567 5.57469 -1.41409 
1843 2 -2.16417 -5.27738 -0.424654 
1106 2 -1.57191 -4.68691 -1.22883 
954 1 -1.9181 5.75989 -1.3111 
147 1 -0.0776184 -5.37654 -1.2263 
459 1 -0.501642 -5.21055 -1.84225 
661 1 0.725704 -5.06493 -1.36918 
569 1 1.507 -4.9624 -0.75095 
1081 2 1.43908 -5.67801 -1.94775 
1199 2 2.19551 -5.63157 -1.13731 
2019 2 3.13102 -4.97808 -1.98333 
1984 2 2.25084 -5.38165 -1.98567 
286 1 2.72373 -4.26983 -1.12684 
1765 2 3.90182 -4.81378 -1.80109 
1859 2 5.02615 -5.01841 -0.450045 
1749 2 4.33409 -5.05149 -0.959146 
542 1 4.67402 -5.72847 -1.67987 
153 1 4.7587 -5.34871 -2.39082 
802 1 5.45036 -5.61976 -1.12789 
1817 2 -5.5 -3.83418 -1.67933 
1217 2 -4.96481 -3.90598 -1.13339 
798 1 -4.66068 -4.60063 -2.03485 
366 1 -4.00503 -4.46335 -1.51391 
844 1 -2.92516 -4.07553 -1.27482 
71 1 -2.44477 -3.57113 -2.11208 
890 1 -2.64864 -4.40986 -0.488064 
986 1 -2.03779 -3.77829 -1.20435 
1613 2 -0.605651 -4.58705 -0.887352 
1896 2 0.0214042 -4.23858 -1.09096 
1753 2 0.726569 -4.1988 -0.523341 
1263 2 0.884125 -3.7679 -1.50139 
1894 2 1.36294 -3.70469 -0.889325 
1923 2 1.85302 -3.38764 -1.51553 
1019 1 1.97434 -4.60538 -1.46976 
1985 2 2.39924 -3.30663 -0.889832 
137 1 3.42824 -3.73016 -1.72519 
605 1 4.47072 -3.44802 -1.6552 
385 1 3.7843 -4.04593 -0.947224 
1131 2 -5.63911 -4.2598 -0.89125 
2017 2 4.84695 -4.44757 -1.58712 
314 1 5.3885 -3.34428 -1.18153 
636 1 -5.41757 -2.57125 -2.18405 
275 1 -4.99931 -2.75891 -0.947584 
219 1 -5.68524 -3.21867 -0.5604 
285 1 -4.7554 -2.42993 -1.77388 
1387 2 -4.43011 -3.46946 -1.7798 
58 1 -4.09159 -2.12623 -1.24398 
1948 2 -3.80069 -3.11803 -2.26254 
1442 2 -3.62806 -3.25554 -1.43351 
1505 2 -2.9702 -2.83824 -1.78463 
1391 2 -2.14134 -2.74011 -0.823679 
1069 2 -1.39634 -2.13703 -1.56588 
1796 2 -0.479233 -2.41376 -0.192243 
324 1 -1.34833 -3.30479 -1.47799 
703 1 0.332641 -2.95374 -1.09627 
566 1 -0.00241822 -2.70661 -1.79503 
1808 2 -0.531962 -2.075 -1.29115 
347 1 -0.582009 -3.1384 -1.50634 
211 1 1.04674 -2.47946 -1.33398 
215 1 1.60746 -2.38666 -0.811593 
377 1 1.99313 -2.03334 -1.40501 
1066 2 2.35716 -2.80164 -2.02135 
1947 2 2.91598 -2.90799 -1.33667 
199 1 2.62329 -1.95418 -0.887761 
1708 2 3.513 -2.45672 -1.98621 
1698 2 4.55162 -2.26566 -1.65634 
1787 2 3.87374 -2.68504 -1.19041 
734 1 -5.80779 -2.8518 -1.4684 
1978 2 5.88349 -1.88355 -1.20662 
1946 2 -4.9351 -1.25533 -2.16593 
1167 2 -5.51716 -1.56069 -1.73168 
1587 2 -5.18248 -1.68244 -0.922265 
1432 2 -3.38569 -0.907521 -1.12283 
1299 2 -4.65263 -1.23639 -1.40469 
1025 2 -4.09017 -1.42344 -0.539331 
917 1 -3.08396 -1.93834 -1.35017 
1128 2 -2.67659 -0.735047 -0.723315 
449 1 -2.5092 -1.73181 -0.626485 
548 1 -1.95001 -1.3899 -1.14362 
683 1 -1.47633 -1.43099 -0.400263 
468 1 -0.82046 -1.02684 -0.929558 
1057 2 0.111207 -1.98945 -0.782843 
1916 2 0.659423 -1.46263 -1.39327 
2046 2 1.13166 -1.49235 -0.74985 
1360 2 1.54154 -0.961783 -1.36835 
691 1 3.04763 -1.66484 -1.45682 
1897 2 2.74969 -0.618101 -1.24625 
626 1 4.10717 -1.51466 -1.14786 
867 1 4.89059 -0.901365 -1.65985 
198 1 4.87255 -1.29324 -0.757418 
962 1 3.55974 -1.78537 -0.439601 
279 1 5.82424 -0.651698 -1.20796 
958 1 -4.85586 -0.383904 -0.953476 
518 1 -5.42163 -0.439441 -1.69929 
921 1 -3.43043 0.494052 -1.51253 
876 1 -4.18376 0.137884 -1.68348 
472 1 -3.92101 -0.109569 -0.868791 
1098 2 -2.8653 -0.408379 -1.7067 
1507 2 -2.01777 -0.287691 -1.14934 
192 1 -2.67694 0.613463 -1.01016 
2043 2 -1.8231 0.0886747 -1.87318 
1323 2 -1.14051 -0.151671 -0.574391 
447 1 -0.522998 -0.657334 -1.70295 
1067 2 -1.09489 0.217322 -1.44902 
160 1 0.551818 -0.16707 -1.70033 
1735 2 -0.413395 0.313639 -0.861075 
601 1 0.0604168 -0.69299 -1.11813 
1213 2 0.35873 0.694973 -1.44115 
886 1 1.87142 0.402654 -1.50409 
121 1 1.15958 -0.113532 -1.0971 
1314 2 3.44289 -0.317655 -1.72652 
837 1 2.36208 0.321264 -0.860135 
243 1 3.19453 0.607881 -1.29896 
1680 2 4.0631 0.163651 -2.17053 
1758 2 3.89818 -0.477759 -0.917508 
1220 2 5.20727 0.220865 -1.63738 
2030 2 4.56597 0.0285985 -1.3423 
1468 2 -5.88082 0.521394 -1.29077 
2038 2 -4.25971 1.60464 -1.92886 
1059 2 -4.60255 1.02892 -1.15735 
966 1 -5.05767 1.79172 -0.800589 
1229 2 -3.84791 1.32963 -1.1609 
1520 2 -3.26374 1.94887 -1.63353 
94 1 -2.90386 0.929835 -2.0087 
1776 2 -3.14173 1.58282 -0.782462 
357 1 -2.09876 1.0256 -1.52662 
115 1 -1.23255 1.49152 -1.84161 
660 1 0.215483 1.80564 -0.842378 
88 1 1.0787 1.77817 -0.175938 
1860 2 1.2302 1.17272 -1.30931 
823 1 1.12292 2.33982 -0.916389 
1967 2 2.42687 2.03288 -2.47039 
1726 2 1.8501 1.1132 -0.474831 
1158 2 2.60832 1.57782 -1.14543 
1866 2 3.55204 1.86718 -1.07379 
783 1 4.79122 0.932536 -0.465206 
104 1 4.06109 0.996213 -1.30233 
1786 2 4.12798 1.65785 -0.38451 
1508 2 -5.37566 0.981406 -1.77897 
110 1 4.60279 1.56105 -2.0486 
16 1 -5.77687 1.80619 -1.23885 
761 1 -5.28258 2.23206 -1.796 
516 1 -4.68484 2.47312 -1.32426 
1105 2 -5.08856 3.4171 -1.0252 
1527 2 -5.83817 2.99007 -1.45878 
276 1 -4.08747 2.86069 -1.87964 
323 1 -3.5401 2.88821 -1.30929 
26 1 -2.98965 3.2715 -1.93383 
460 1 -2.50314 3.18886 -1.13838 
1839 2 -2.90676 2.34142 -2.45093 
1170 2 -2.40928 1.88497 -1.05205 
1959 2 -2.32349 2.4088 -1.74709 
2021 2 -1.06406 2.72838 -1.76498 
1092 2 -1.50353 2.42403 -1.1154 
608 1 -0.410442 1.76468 -1.48794 
1247 2 0.158969 2.98389 -1.31386 
2047 2 -0.606398 2.53517 -0.961992 
945 1 1.51015 2.51902 -1.76805 
747 1 1.94647 2.28564 -0.923698 
143 1 2.03521 2.99268 -2.06927 
510 1 3.36199 2.70166 -0.656769 
1368 2 3.03326 1.98521 -1.83964 
181 1 3.66044 3.30546 -1.19159 
1686 2 4.22512 2.37741 -1.53001 
1825 2 5.23003 2.53307 -1.57921 
1330 2 5.52048 2.41585 -0.744046 
355 1 -5.64716 4.41652 -1.63944 
974 1 -4.91412 4.62969 -1.25013 
1419 2 -5.37237 3.64389 -2.13927 
1853 2 -3.87772 3.84026 -1.24846 
1072 2 -4.58527 3.64668 -1.66681 
520 1 -2.02267 3.60337 -2.03471 
1348 2 -2.97271 4.03787 -1.0364 
1344 2 -2.53668 4.50948 -1.55273 
111 1 -1.53231 3.64673 -1.36054 
720 1 -1.71914 3.27185 -0.504675 
1265 2 -2.25802 4.25278 -0.557978 
361 1 -0.0925252 4.23843 -1.53101 
165 1 0.666196 4.28656 -0.800588 
418 1 -0.582113 3.72821 -1.02764 
1107 2 1.36787 3.5996 -1.19886 
1428 2 2.54505 3.99437 -1.53334 
187 1 0.792184 4.58783 -1.65536 
1405 2 2.19027 3.57183 -0.867185 
1854 2 2.28611 4.46476 -2.64331 
1126 2 3.08034 4.37035 -2.17405 
1868 2 3.61885 4.49366 -1.45421 
552 1 3.961 3.53848 -1.97519 
432 1 4.6468 3.51343 -1.39755 
1178 2 4.3913 4.66436 -1.1542 
166 1 5.38199 4.05945 -1.60769 
582 1 5.87806 3.98533 -1.00537 
650 1 5.25044 3.42548 -0.723954 
1362 2 -4.81737 5.70823 -1.29482 
1822 2 -4.03273 -5.91192 -0.963879 
961 1 -4.45162 4.98928 -2.03159 
203 1 -4.13757 4.77786 -1.17189 