ITEM: TIMESTEP
12800
ITEM: NUMBER OF ATOMS
2048
ITEM: BOX BOUNDS pp pp pp
-5.9481438163643769e+00 5.9481438163643769e+00
-5.9481438163643769e+00 5.9481438163643769e+00
-5.9481438163643769e+00 5.9481438163643769e+00
ITEM: ATOMS id type x y z 
435 1 -5.67206 -5.81446 -5.83849 
412 1 -5.33134 5.81662 -5.03799 
825 1 5.70514 5.56426 -4.82487 
1849 2 -5.65987 -5.05221 -4.8582 
554 1 -3.90814 -5.39672 -5.67458 
333 1 -3.51789 -5.27783 -4.97855 
91 1 -2.76764 -4.78999 -5.20261 
1365 2 -3.32719 5.67285 -5.57173 
805 1 -2.76248 -5.20798 -4.31797 
1291 2 -1.19245 -5.64826 -4.70727 
1138 2 -2.69131 -5.8182 -5.61859 
1035 2 -0.26189 -5.26835 -5.07951 
1429 2 0.265055 -5.05505 -4.39471 
648 1 2.18473 -5.2449 -5.25675 
503 1 1.34283 -5.49324 -5.53306 
49 1 3.14013 -5.00496 -4.65857 
1846 2 3.02496 5.93153 -5.79863 
1244 2 3.74798 -5.37369 5.7027 
57 1 3.72202 -4.69258 -4.97687 
1677 2 3.01634 -5.29495 4.28383 
1799 2 5.69636 -4.96298 -5.55193 
1875 2 4.39772 -5.45045 -5.4713 
1633 2 -5.13613 -4.56312 -5.17773 
511 1 -5.39394 -3.7124 -4.74406 
675 1 5.97251 -3.66046 -5.65895 
1548 2 -3.31321 -4.31557 -4.19221 
1663 2 -4.35418 -4.2312 -5.56172 
1261 2 -3.66944 -3.99234 -5.13299 
2009 2 -1.97357 -3.43376 -5.04766 
530 1 -2.36192 -4.36586 -5.95354 
247 1 -1.97273 -4.78216 -4.94319 
855 1 -1.2625 -4.3944 -4.92584 
416 1 -1.52449 -4.19743 -5.65007 
227 1 -0.733647 -4.14166 -5.45802 
819 1 0.0223431 -3.60086 5.93345 
924 1 -0.847876 -3.79796 5.57807 
1790 2 1.50308 -4.01099 -5.82979 
1709 2 1.01642 -4.55438 -5.34148 
413 1 0.21258 -3.75423 -5.19441 
1678 2 1.69883 -4.35608 -4.78813 
1737 2 2.18893 -4.04605 -5.41094 
1902 2 3.24039 -3.52219 -4.96737 
64 1 2.76847 -4.78102 -5.43401 
1475 2 4.67975 -3.11377 -5.19614 
19 1 3.57373 -4.51319 -5.74278 
1070 2 3.8351 -3.19714 -5.6415 
1129 2 4.00463 -3.60607 -4.74706 
223 1 5.14955 -3.97718 -5.47813 
496 1 4.50731 -4.37585 -5.23681 
1588 2 -5.42472 -2.41896 -5.29089 
1243 2 -4.55159 -2.19894 -4.9465 
1937 2 5.94072 -2.62601 -4.66729 
251 1 -5.34389 -3.26927 5.76834 
269 1 -3.60554 -2.57303 5.88828 
353 1 -4.97389 -3.37177 -5.39438 
664 1 -3.10063 -2.6117 -5.22639 
218 1 -4.13203 -3.10592 -5.24697 
1745 2 -3.4141 -1.72383 -4.77728 
151 1 -1.91542 -2.10166 -5.59061 
387 1 -2.60323 -2.21479 5.9522 
1231 2 -2.75183 -3.57424 -5.63472 
1379 2 -1.44462 -2.99563 -5.65206 
35 1 -1.12615 -2.16842 -4.92686 
1255 2 -0.588356 -2.83827 -5.71722 
1763 2 -0.00202714 -2.77387 -4.98533 
1909 2 0.463654 -2.29346 -5.58298 
1525 2 0.86547 -2.4483 -4.845 
136 1 0.990426 -3.35983 -5.31684 
547 1 1.73934 -3.23196 -4.96854 
939 1 2.24654 -2.80983 -5.42023 
277 1 2.6913 -2.64328 -4.71112 
485 1 3.31662 -2.35876 -5.29486 
904 1 4.12734 -2.09034 -5.10426 
602 1 3.56262 -2.5262 -4.4014 
1995 2 4.98794 -2.75445 5.86312 
1465 2 5.57219 -2.64227 -5.52191 
543 1 -5.59963 -0.869996 5.9617 
833 1 -4.80752 -1.02086 -5.35972 
205 1 -5.50685 -1.34279 -5.05369 
1341 2 -4.00557 -1.8804 -5.37886 
1733 2 -2.8225 -1.32851 -5.42428 
1196 2 -3.51158 -1.26663 5.94149 
1809 2 -2.19655 -1.25935 -4.8789 
1569 2 -2.57496 -0.795977 5.67675 
1345 2 -1.93192 -0.909026 -5.75794 
1478 2 -1.44982 -1.23955 -4.64838 
830 1 -0.80583 -1.76579 -5.62425 
367 1 -0.652475 -1.19513 5.64126 
8 1 -0.0320166 -1.538 -5.25492 
1820 2 1.20705 -1.95359 -5.91714 
768 1 0.757059 -1.15434 -5.38546 
1190 2 1.59882 -2.04386 -5.00739 
1964 2 2.23535 -1.58978 -5.5417 
1775 2 2.87824 -1.44246 -5.01406 
609 1 4.81239 -1.83764 -5.54177 
1224 2 3.51379 -0.962904 -5.6296 
1332 2 4.21633 -0.926624 -4.99505 
2036 2 3.60589 -1.41384 -4.49538 
771 1 5.72493 -1.39249 -5.50459 
740 1 5.32181 -1.93757 -4.8322 
1623 2 4.95398 -1.0141 -4.44347 
1498 2 -5.38459 0.0634728 -5.54558 
1346 2 -4.97292 0.057517 -4.76167 
1212 2 -4.86617 0.548561 5.90526 
505 1 -3.96824 -0.39798 -5.72842 
2028 2 -4.29544 0.388223 -5.16337 
451 1 -2.28463 -0.00384976 -5.29711 
374 1 -1.80202 0.457813 -5.86977 
1256 2 -3.4837 0.880123 -5.24255 
1414 2 -2.03091 -0.505265 5.1499 
827 1 -1.35219 0.0516902 -5.00028 
517 1 -0.66424 0.3597 -4.66044 
1572 2 -1.22226 -0.821489 -5.32302 
1171 2 -1.22304 -0.373534 5.42027 
1975 2 -0.518923 -0.241395 -5.81627 
1963 2 1.03933 0.290582 -5.81041 
788 1 1.2735 -0.672761 -5.81606 
1180 2 1.4584 0.202513 -4.96668 
31 1 1.9221 -0.632159 -5.40075 
195 1 2.81462 -0.213645 -5.13387 
1470 2 2.75426 0.790629 -4.7861 
138 1 2.38601 -0.19153 5.85866 
758 1 3.53834 0.225608 -5.57056 
299 1 4.09289 0.139335 -4.83426 
60 1 4.60685 0.505829 -5.44457 
1830 2 -5.74737 -0.430087 -4.5775 
1634 2 5.67406 -0.4717 -5.0949 
302 1 5.34654 0.462508 -4.72735 
656 1 -5.29153 1.54476 -5.79666 
338 1 -4.89043 1.1525 -4.92643 
752 1 -4.30396 1.75969 -5.43297 
697 1 -3.13937 2.12682 -5.59636 
1343 2 -3.96926 0.948486 5.85504 
190 1 -3.56653 1.8227 -4.91904 
1736 2 -2.66834 0.901324 -4.74464 
212 1 -0.98618 0.591019 -5.80658 
1050 2 -2.13145 1.39458 -5.53332 
1054 2 -1.65209 1.19465 -4.7309 
1063 2 -1.10711 1.63943 -5.38737 
842 1 -0.129937 0.767417 -5.12758 
408 1 0.474936 0.919962 -4.54111 
551 1 0.749699 1.28094 -5.49445 
380 1 1.53679 1.80398 -5.82725 
760 1 2.08173 1.82569 -5.21141 
1785 2 2.0826 0.649987 -5.31571 
1910 2 3.27286 0.58576 -4.11545 
1845 2 3.36063 1.24521 -5.15996 
895 1 2.42022 2.15268 -5.76238 
1011 1 3.01721 2.04655 -4.81895 
1226 2 4.00366 1.55958 -5.77503 
420 1 -5.76932 1.01979 -5.20333 
1396 2 4.48848 2.05346 5.72085 
1431 2 5.13965 1.97068 -5.51156 
1497 2 4.53449 1.48018 -5.11873 
1403 2 -5.62922 2.43071 -5.29425 
1716 2 -4.75948 2.55898 -5.09638 
1762 2 -5.33064 2.78103 5.75739 
1620 2 -4.40217 2.99591 -5.71978 
1175 2 -3.533 3.12296 -5.3898 
820 1 -2.59329 2.00016 -4.89218 
494 1 -2.1607 2.63301 -5.52533 
710 1 -0.834054 3.33643 5.62878 
982 1 -1.44299 2.50305 -4.89155 
1884 2 -0.0274556 1.94379 -5.25997 
310 1 -0.355481 3.04367 -5.00768 
1506 2 1.08169 2.59152 -5.48112 
1628 2 2.20621 2.9812 -5.12467 
1653 2 0.544375 2.28684 -4.833 
2039 2 2.84761 3.16118 -4.56779 
621 1 4.35392 2.44647 -4.7189 
574 1 3.60786 2.47159 -5.18594 
869 1 4.07591 2.92311 -5.93016 
396 1 4.8691 2.99849 -5.36416 
178 1 5.4017 3.39911 -5.84942 
923 1 -5.16204 3.61829 -4.87165 
644 1 -5.72227 3.64486 -5.67472 
45 1 -4.70566 3.98802 -5.44337 
1048 2 -5.35811 4.35212 -4.2497 
797 1 -3.99896 4.3798 -5.67525 
92 1 -4.08776 3.90623 -4.94859 
1824 2 -2.58929 3.26477 -5.04195 
1268 2 -1.74671 3.41504 -4.63628 
1336 2 -1.91187 3.84301 -5.39877 
729 1 -3.02588 4.55131 -5.51351 
1096 2 -2.34272 4.05461 5.58492 
1161 2 -1.0213 3.92831 -5.07678 
1145 2 -0.213932 4.25978 -4.93794 
1926 2 -0.55745 3.83428 -4.20037 
561 1 0.671455 3.58582 -4.86661 
1354 2 0.24976 4.43567 -4.21957 
56 1 1.55506 3.80504 -5.02783 
709 1 2.25076 4.19816 -4.98874 
1979 2 2.69511 3.47666 -5.77407 
72 1 1.58992 4.2137 5.88687 
716 1 2.58152 4.58372 -5.72094 
1274 2 3.29408 3.44268 -5.18615 
777 1 3.36343 4.64532 -5.29816 
1342 2 4.13218 3.68622 -5.2243 
1618 2 4.65481 3.89366 -4.5799 
204 1 5.82511 3.27769 -4.88015 
1779 2 4.99353 4.25683 -5.39161 
1073 2 -5.89394 4.41755 -4.8671 
1640 2 -5.83005 4.70696 -5.61791 
1088 2 -4.98462 4.92626 -5.09574 
1670 2 -5.32557 5.09981 5.70046 
1353 2 -4.45984 5.37479 -5.8245 
1539 2 -3.90846 5.62747 5.60424 
1526 2 -3.15443 5.58384 -4.67504 
638 1 -2.36248 4.77679 -5.02237 
428 1 -1.42124 4.89937 -4.8221 
87 1 -1.74413 5.22893 -5.80771 
495 1 -0.0996852 5.55792 -5.06203 
123 1 -0.653484 5.16729 -4.58977 
628 1 0.976371 -5.81797 -4.87772 
1306 2 0.194393 4.61085 -5.56153 
1039 2 0.789664 4.75218 -5.06805 
1033 2 1.72603 5.11386 -5.07693 
1668 2 2.10744 5.12386 -4.27263 
415 1 3.19894 5.02299 5.57012 
1847 2 1.94122 5.55079 -5.90432 
946 1 3.90201 5.18017 -5.67433 
501 1 4.64544 5.20943 -5.15325 
1667 2 3.23112 -5.67434 5.14774 
1955 2 3.5494 -5.83256 -5.11475 
699 1 5.36246 5.60716 -5.59244 
407 1 4.62995 5.59303 5.89392 
1358 2 5.76718 -5.55502 -4.20874 
1418 2 -5.10119 -5.03989 -4.25859 
2016 2 -4.22255 -4.48345 -4.64943 
1312 2 -4.69843 -5.16361 -3.44415 
14 1 -3.85399 -5.70974 -4.35593 
473 1 -4.47452 -5.81288 -4.92151 
508 1 -3.31865 -5.66193 -3.67851 
1008 1 -3.49128 5.81872 -2.95982 
1542 2 -2.21811 5.78773 -4.72391 
274 1 -1.71604 -5.12418 -3.99663 
453 1 -1.11377 -5.09026 -3.35768 
1151 2 -0.936192 5.78426 -3.91249 
260 1 -2.3827 -5.47288 -3.51525 
1029 2 -0.233429 -5.78088 -3.30372 
1334 2 -0.453547 -5.54221 -4.32466 
1260 2 0.54007 -5.45313 -3.63969 
673 1 1.73406 -5.65846 -4.61621 
1486 2 1.02279 -4.82449 -4.52605 
1082 2 1.30644 -5.14075 -3.68115 
575 1 2.57027 -5.44486 -4.34415 
1592 2 1.87477 -4.67412 -4.07663 
667 1 4.24406 -4.76259 -4.15045 
180 1 3.45833 -5.2334 -3.81073 
809 1 4.94825 -4.51178 -4.52479 
131 1 4.81144 -4.87883 -3.53632 
847 1 4.74673 -5.2541 -2.72722 
1192 2 5.22607 -5.42631 -4.98281 
1272 2 4.84948 -5.8337 -3.89667 
1604 2 5.55558 -5.78774 -3.31832 
284 1 5.48771 -4.81749 -3.00292 
373 1 5.62403 -4.13811 -4.80638 
991 1 -5.26607 -4.0731 -3.93797 
1394 2 -4.00813 -4.76028 -3.69732 
273 1 -4.53109 -3.53693 -4.47119 
483 1 -3.92425 -3.54159 -3.75647 
1079 2 -2.6313 -4.3343 -3.48646 
1477 2 -2.68008 -3.96863 -4.65684 
1452 2 -1.92439 -4.17458 -3.91151 
1581 2 -1.56568 -3.45869 -4.21206 
1848 2 -0.789919 -3.74046 -3.57572 
902 1 -0.852977 -4.64224 -4.08305 
467 1 -0.369543 -4.13509 -4.61301 
122 1 1.12052 -3.63594 -4.40929 
782 1 0.438011 -4.04783 -4.10559 
1836 2 2.58487 -4.1089 -4.62016 
1001 1 1.60706 -3.74251 -3.65226 
2010 2 4.53105 -3.58205 -4.10064 
1844 2 3.3841 -4.0521 -4.10107 
1655 2 5.25242 -3.5529 -3.51301 
339 1 5.60578 -4.50249 -3.88521 
1664 2 -5.00723 -2.59707 -4.23208 
1924 2 -4.34471 -2.59985 -3.56574 
1911 2 -4.03309 -2.26536 -4.30944 
2007 2 -3.60678 -2.49562 -2.99893 
196 1 -2.26092 -2.39153 -4.90335 
524 1 -3.59538 -3.00798 -4.52509 
236 1 -2.68599 -2.83418 -4.26975 
657 1 -1.5481 -2.42288 -4.17631 
597 1 -0.585983 -2.32235 -3.88489 
388 1 -1.26926 -2.77373 -3.41824 
573 1 -0.421017 -2.27282 -3.0896 
1370 2 -0.971677 -3.26682 -4.90176 
1645 2 -0.528562 -3.19807 -4.34779 
1555 2 0.427171 -2.77972 -4.18609 
1083 2 1.54606 -2.40193 -4.0905 
1982 2 0.982389 -2.95878 -3.44913 
403 1 2.27312 -3.32273 -4.18676 
1676 2 2.28056 -2.278 -3.45571 
471 1 3.0372 -3.05516 -3.89482 
999 1 4.42922 -2.37384 -4.38266 
140 1 4.14575 -2.7989 -3.58962 
1657 2 5.40115 -3.24078 -4.52189 
1871 2 -5.64827 -3.15056 -3.81811 
784 1 5.02455 -2.39052 -3.83552 
66 1 -5.83722 -1.62495 -4.38713 
968 1 5.8299 -2.22835 -3.51305 
291 1 -5.31547 -1.74219 -3.63893 
161 1 -4.79623 -1.30558 -4.28996 
1826 2 -5.81114 -0.913931 -3.18645 
214 1 -4.03877 -0.829349 -4.78736 
717 1 -4.03953 -1.23272 -3.86125 
704 1 -3.38383 -0.746093 -4.05808 
1097 2 -3.26182 -2.14252 -3.68929 
701 1 -3.24752 -0.484054 -4.95773 
1271 2 -2.80155 -1.72239 -4.26143 
1867 2 -2.52815 -2.14124 -3.349 
37 1 -2.58557 -0.901221 -3.53911 
1908 2 -1.90563 -1.44951 -3.87748 
1537 2 -1.04514 -1.41441 -3.60655 
1296 2 -0.615183 -0.990403 -4.27 
1006 1 -0.466366 -1.95125 -4.59063 
1644 2 0.190912 -0.606384 -3.88176 
11 1 0.154389 -1.72745 -3.97921 
421 1 0.609904 -1.40173 -4.56053 
674 1 1.36097 -1.03915 -4.86281 
427 1 1.11742 -1.44966 -3.70646 
1259 2 2.33929 -1.84597 -4.45815 
1326 2 3.1607 -2.12715 -3.28798 
116 1 2.94848 -0.640025 -4.01141 
866 1 1.81792 -1.09981 -4.04162 
1363 2 3.07154 -1.75095 -4.04014 
2048 2 3.84136 -1.6966 -3.45927 
1163 2 4.28042 -1.33288 -4.05701 
2001 2 5.59488 -0.964024 -3.86976 
1110 2 5.04365 -1.34549 -3.38812 
1754 2 -5.19771 -0.594106 -3.87738 
692 1 -5.64128 0.186667 -3.37919 
2035 2 -4.5913 -0.2659 -3.26142 
32 1 -4.77482 0.827716 -3.75644 
1184 2 -3.64533 0.422203 -4.57133 
1111 2 -3.6112 0.154325 -3.58382 
1962 2 -4.27234 -0.0422682 -4.07887 
1834 2 -2.15518 0.360143 -3.11415 
749 1 -2.48757 -0.446105 -4.5337 
789 1 -1.77342 -0.0694555 -4.288 
615 1 -0.968738 -0.0715225 -3.8951 
1573 2 -0.188306 -0.521263 -4.9141 
1777 2 0.662713 -0.125474 -4.58524 
80 1 -0.153297 0.343817 -4.0078 
625 1 0.449261 0.611861 -3.41209 
1223 2 0.376387 -0.0769701 -5.4198 
1673 2 1.49178 0.159053 -4.14957 
1412 2 2.25907 0.273731 -4.16937 
560 1 2.26172 -0.630125 -4.62599 
2008 2 2.74733 0.317021 -3.32178 
1502 2 1.87504 -0.0693223 -3.31322 
700 1 3.58141 -0.390828 -4.50738 
715 1 4.03061 -0.453704 -3.6964 
1953 2 3.62199 0.510999 -3.34942 
469 1 4.65196 0.147464 -4.2269 
818 1 5.34124 0.0399018 -3.55776 
915 1 -5.63162 0.689561 -4.17791 
1377 2 -5.3758 2.0526 -4.54524 
1654 2 5.65556 1.3097 -3.67347 
1132 2 -5.41478 1.7253 -3.74569 
230 1 -4.08787 1.2519 -4.11884 
164 1 -3.08672 1.35933 -3.38907 
1643 2 -2.78366 0.424176 -4.03039 
689 1 -2.99206 1.71011 -4.25507 
489 1 -2.31854 1.76034 -3.53866 
1550 2 -1.91792 0.846734 -3.90918 
1364 2 -0.551926 1.59444 -4.64469 
1149 2 -0.988692 1.08616 -4.05001 
1436 2 -1.29155 0.665331 -3.10734 
1386 2 -0.244247 1.37086 -3.5655 
1310 2 0.18628 1.85867 -4.15489 
254 1 1.39571 1.22412 -4.67655 
1021 1 1.1195 1.07518 -3.88038 
1683 2 1.10098 2.02819 -4.0596 
594 1 1.96679 1.18586 -3.80042 
894 1 2.41797 1.67754 -4.39995 
874 1 3.06502 1.48963 -3.67369 
1204 2 3.88538 1.13512 -4.41877 
1172 2 4.81094 1.366 -4.26754 
731 1 4.13373 2.01523 -3.36804 
171 1 3.7278 2.08607 -4.26619 
1068 2 5.59001 1.92465 -4.5632 
188 1 -5.46204 3.07678 -4.22349 
1728 2 -4.42708 2.20206 -4.10851 
69 1 -4.97451 2.98016 -3.59364 
1482 2 -3.84331 2.82118 -4.65037 
1877 2 -4.51495 1.89811 -3.26823 
1142 2 -3.4815 2.47529 -3.72342 
1625 2 -3.00326 3.06578 -4.45734 
1794 2 -2.39261 3.03679 -3.89025 
903 1 -1.91031 2.09152 -4.37207 
1015 1 -0.803091 2.5605 -4.29023 
852 1 -1.01153 2.94111 -5.50778 
1607 2 -1.769 2.99387 -3.11717 
843 1 0.148315 3.01627 -4.31586 
208 1 -0.28378 2.58663 -3.60317 
1769 2 1.48832 2.53322 -4.71756 
301 1 0.695088 2.86096 -3.39179 
2020 2 1.6199 2.21197 -3.44963 
885 1 1.25977 3.36127 -4.19144 
1999 2 2.13987 2.65884 -4.1908 
1214 2 3.3787 2.9484 -3.86484 
1522 2 3.85902 3.01762 -3.14712 
1977 2 4.46306 3.37228 -3.78359 
631 1 5.72013 2.54622 -3.7199 
726 1 5.23463 2.87053 -4.62129 
702 1 4.82186 2.40643 -3.92707 
1349 2 5.98738 3.95559 -3.70489 
1575 2 -4.92149 4.05753 -3.43922 
1971 2 -5.61401 3.74297 -2.98743 
755 1 -3.51194 3.82112 -3.95236 
676 1 -4.52847 3.4727 -4.21073 
446 1 -4.10996 3.28705 -3.47514 
687 1 -3.10619 4.23007 -4.84998 
577 1 -2.85001 4.05489 -3.59613 
1689 2 -1.38532 3.33648 -3.88841 
632 1 -2.38198 4.29965 -4.30066 
1304 2 -0.761274 3.53736 -3.2026 
1372 2 0.0255929 3.72158 -3.65882 
76 1 2.20011 3.83746 -3.99433 
1183 2 0.999157 4.34132 -3.70721 
2040 2 1.19732 4.73117 -4.38079 
256 1 3.6237 4.21387 -3.92617 
884 1 2.96665 4.2594 -4.55603 
34 1 2.87409 3.78805 -3.44549 
1562 2 3.896 3.39995 -4.3885 
394 1 4.03924 4.07334 -3.16226 
653 1 3.90312 4.75565 -4.66229 
835 1 4.48022 4.57669 -3.71715 
1439 2 5.33247 3.99439 -4.21505 
1636 2 5.21941 3.42497 -3.40626 
1994 2 4.72406 3.11 -2.73289 
346 1 -4.982 5.74204 -4.19121 
662 1 -5.78555 5.28607 -4.06051 
1413 2 -4.42351 4.80816 -4.47603 
1335 2 -3.65772 4.90049 -4.31577 
255 1 -4.18386 5.79251 -3.72784 
1038 2 -3.91957 5.32299 -5.20212 
1757 2 -2.65891 5.36419 -4.06038 
221 1 -1.62023 4.35489 -4.15627 
340 1 -0.960378 4.77601 -3.78626 
1329 2 -1.83285 5.69184 -4.06684 
82 1 0.40612 5.56782 -4.35347 
568 1 -0.00580882 5.16035 -3.74455 
959 1 1.1987 5.59918 -3.8728 
1071 2 1.91431 4.61542 -3.42986 
442 1 1.94347 5.78672 -3.53217 
1093 2 2.47258 5.67694 -5.0551 
1593 2 3.11371 5.45053 -4.45688 
425 1 2.76151 -5.76367 -3.60183 
1691 2 3.86168 5.90341 -4.36546 
1704 2 4.51913 -5.79933 -4.70602 
1612 2 4.18937 5.57799 -3.52519 
443 1 5.05213 5.06588 -4.43097 
918 1 5.50872 4.92535 -3.55605 
1534 2 -4.92392 -5.70997 -2.84789 
280 1 -4.96143 -4.47364 -2.48827 
1773 2 -5.56269 -5.57122 -3.53527 
1285 2 -4.03167 -5.15561 -2.68739 
1197 2 -3.36953 -4.77971 -3.06211 
1404 2 -3.48218 -5.33081 -2.16495 
1047 2 -2.74932 -4.86571 -2.37574 
295 1 -2.59579 -5.92152 -2.7692 
934 1 -1.65607 -5.49162 -2.86562 
1338 2 0.52515 -5.81068 -2.75391 
326 1 -0.0170051 -4.54886 -3.31766 
5 1 -0.500621 -5.01594 -2.69692 
328 1 -0.230645 -5.2651 -1.94949 
1319 2 1.34453 -5.44906 -2.68691 
1928 2 0.873352 -5.80283 -1.98412 
1563 2 2.67372 -5.0531 -2.43081 
487 1 3.17041 5.87505 -2.82914 
1887 2 2.07368 -5.02272 -3.08198 
1528 2 1.98709 -5.44403 -1.90291 
955 1 3.98562 -5.34426 -3.16474 
422 1 3.87478 -5.76801 -2.30169 
1765 2 3.62039 -4.85387 -2.002 
1013 1 5.40848 -5.24413 -2.12311 
666 1 -5.63329 -4.93962 -2.57535 
878 1 -4.57405 -3.91555 -3.38572 
1817 2 -5.60473 -3.80906 -2.09011 
864 1 -5.53333 -4.47556 -3.25109 
1545 2 -4.71762 -3.37804 -2.12422 
411 1 -4.13781 -4.18909 -2.60239 
504 1 -3.46912 -3.75304 -2.94267 
1807 2 -2.22167 -4.52673 -2.81387 
313 1 -3.1583 -3.30612 -3.58078 
246 1 -2.50418 -3.58581 -2.77264 
1280 2 -1.5267 -4.10308 -3.12979 
1402 2 -1.73885 -4.62381 -2.16686 
1878 2 -1.00935 -4.13381 -2.37383 
1580 2 0.200141 -3.78744 -1.86773 
1457 2 -0.191784 -3.8272 -2.67109 
1401 2 0.0340264 -3.26227 -3.50198 
107 1 0.392479 -4.68985 -2.48357 
938 1 0.975388 -4.22135 -3.17931 
20 1 1.128 -4.50206 -2.16316 
1198 2 2.68678 -4.60538 -3.63376 
321 1 1.75208 -4.10372 -2.66769 
639 1 2.47525 -3.70946 -3.29726 
914 1 3.05716 -3.75065 -2.48677 
1521 2 3.49358 -4.47889 -2.83675 
1240 2 4.15164 -4.04333 -3.39034 
1530 2 4.26351 -4.42309 -2.47655 
1201 2 -5.72581 -3.48389 -2.91616 
1767 2 4.83692 -3.95479 -2.87425 
2002 2 5.46408 -3.98256 -2.36468 
1400 2 -4.8335 -2.98312 -3.03107 
592 1 -5.32848 -2.17233 -2.75436 
1289 2 -4.02913 -3.02613 -2.49206 
1682 2 -2.0086 -2.22286 -2.30283 
1052 2 -2.81392 -2.62579 -2.47071 
1086 2 -1.37319 -2.0932 -1.84349 
599 1 -2.24589 -3.11449 -3.45254 
753 1 -1.64461 -3.15511 -2.63602 
526 1 -0.599204 -2.80684 -2.56328 
998 1 0.358875 -2.42325 -2.56191 
211 1 0.920219 -2.43487 -1.80547 
1991 2 0.59368 -3.42546 -2.72592 
1533 2 1.61804 -2.84348 -2.97847 
1738 2 1.43988 -3.20382 -2.26044 
705 1 1.3258 -2.02594 -2.59665 
1123 2 2.62835 -2.66387 -2.64556 
1066 2 2.28585 -3.09018 -1.97282 
1973 2 3.96041 -2.28005 -2.08933 
1030 2 3.51738 -2.2325 -2.67437 
754 1 3.44717 -3.33462 -3.22211 
1279 2 4.94274 -1.90191 -2.1187 
562 1 4.84451 -2.78277 -3.04024 
296 1 5.70813 -2.58835 -2.67604 
1792 2 -4.91054 -0.768135 -2.56814 
767 1 -4.47283 -1.54509 -3.1881 
1946 2 -5.61173 -1.26047 -2.3784 
848 1 -4.12549 -1.75219 -2.48625 
917 1 -3.30116 -1.70744 -2.25246 
285 1 -4.76476 -2.31378 -2.01187 
419 1 -3.53492 -1.25746 -3.07838 
117 1 -2.66675 -1.25058 -2.49674 
898 1 -1.84111 -0.886252 -2.6216 
1781 2 -1.57883 -1.82005 -3.02317 
1635 2 -0.813682 -1.64398 -2.47133 
59 1 -1.35431 -0.914617 -1.73294 
1870 2 -0.331511 -1.12351 -3.19944 
1819 2 -0.0293531 -1.37966 -2.14799 
1517 2 0.49463 -0.871065 -3.0297 
287 1 0.580079 -2.02763 -3.25595 
581 1 1.85772 -1.44168 -3.11725 
2027 2 0.879453 -1.14843 -2.06806 
640 1 2.36302 -0.872462 -3.56806 
106 1 2.15377 -1.85449 -2.21063 
125 1 2.70193 -1.28218 -2.84646 
846 1 3.37212 -0.794806 -3.112 
334 1 3.12113 -1.35382 -2.16374 
1350 2 4.33071 -1.90083 -2.91038 
109 1 3.93834 -1.04793 -2.50285 
1167 2 5.73717 -1.73856 -1.85013 
1641 2 5.36261 -1.44111 -2.64281 
654 1 -5.43555 0.0754216 -2.09328 
824 1 -5.01831 0.498091 -2.75346 
912 1 -4.16465 0.449046 -2.22528 
1876 2 -2.98717 0.000671413 -2.9534 
1589 2 -3.85502 -0.348127 -2.67023 
1432 2 -3.58852 -0.863928 -1.4712 
921 1 -3.43205 0.421943 -1.63031 
1098 2 -3.00235 -0.408299 -1.99211 
1206 2 -2.15106 -0.0139341 -2.28967 
1761 2 -1.34733 0.392594 -2.26747 
234 1 -1.80501 -0.517736 -3.55731 
799 1 -1.10913 -0.500647 -2.83787 
499 1 -0.505618 -0.0384375 -3.11238 
630 1 0.0765267 -0.0464392 -2.5366 
963 1 1.4934 0.795151 -2.9474 
447 1 -0.37926 -0.46999 -1.83561 
1456 2 1.00302 -0.234349 -3.66479 
1832 2 1.40069 -0.602023 -2.68737 
776 1 0.696772 0.313628 -2.67754 
1696 2 2.67913 -0.31263 -2.5934 
886 1 1.48315 0.427143 -2.08915 
1320 2 3.48471 0.0938013 -2.64923 
1952 2 4.39797 0.474209 -2.71497 
1680 2 3.84452 -0.0228869 -1.91267 
872 1 4.64622 -0.441208 -2.93375 
241 1 5.27892 -0.535871 -2.32287 
297 1 5.76078 0.0371633 -2.75668 
1220 2 4.82238 0.469804 -1.95604 
1986 2 -5.66885 1.27192 -2.93838 
278 1 -4.05459 0.931229 -3.09031 
900 1 -3.24658 0.882424 -2.46368 
1720 2 -4.69509 1.58146 -2.5799 
613 1 -2.38083 1.25147 -2.57633 
189 1 -1.64683 1.75978 -3.00571 
94 1 -2.52198 0.852475 -1.78628 
397 1 -1.06174 1.89514 -2.19582 
686 1 -1.3 2.14498 -3.81154 
1104 2 -0.566851 1.13305 -2.84127 
1187 2 0.555304 1.6677 -3.3558 
2022 2 -0.501762 0.72058 -2.06398 
1893 2 0.270194 1.25083 -2.5351 
464 1 2.23808 0.653695 -2.3816 
1838 2 1.1795 1.78811 -2.77415 
1944 2 1.72473 1.67117 -2.09213 
50 1 2.53468 1.21793 -3.01982 
90 1 3.14335 1.18832 -2.4348 
232 1 3.53663 1.45293 -2.9968 
1017 1 3.85472 1.14612 -1.90821 
1858 2 5.03552 1.03813 -3.11765 
1861 2 4.23762 0.84835 -3.70696 
944 1 4.22512 1.66223 -2.43892 
811 1 -5.89291 2.30327 -2.48347 
7 1 -5.52444 2.62916 -3.10916 
926 1 -5.00906 2.58244 -2.33639 
1512 2 -3.69452 2.05881 -2.94436 
276 1 -4.21307 2.56413 -1.85573 
369 1 -4.17948 3.02744 -2.66747 
989 1 -3.32372 3.06235 -2.14985 
1485 2 -2.76391 2.55027 -3.22084 
1938 2 -2.91356 2.11468 -2.4524 
1415 2 -2.15627 2.52169 -2.51068 
1476 2 -1.16074 3.15931 -2.62751 
1959 2 -1.56403 2.64199 -1.75849 
719 1 -0.855196 2.12169 -3.07765 
585 1 -0.174499 2.01036 -2.03472 
134 1 -0.0157404 2.42372 -2.8089 
910 1 0.606063 2.56223 -2.13951 
240 1 1.25524 2.96961 -2.69578 
1642 2 2.56964 2.55726 -3.50026 
1340 2 2.11512 2.13894 -2.77794 
937 1 1.90958 2.96598 -2.10339 
1967 2 2.77563 1.94265 -1.96576 
1461 2 3.15797 2.47071 -2.77154 
1026 2 3.9863 2.78454 -2.27694 
381 1 5.14835 2.14611 -3.08262 
1825 2 5.09644 2.96302 -1.9679 
1669 2 -4.46766 4.1767 -2.67751 
1278 2 -5.09024 3.66849 -2.14876 
1333 2 5.60933 3.34573 -2.58972 
1275 2 -4.26817 4.59358 -3.60677 
1287 2 -3.78091 4.08557 -2.07884 
1325 2 -3.46348 4.4933 -2.7302 
250 1 -3.31536 3.49355 -2.94408 
772 1 -2.3808 3.7063 -2.62132 
17 1 -1.90483 4.13193 -3.25273 
733 1 -1.69429 3.90055 -2.03537 
612 1 -1.03241 4.39473 -2.85313 
1756 2 -0.296824 3.35747 -2.31002 
1616 2 0.374495 3.71886 -2.93811 
111 1 -0.42616 4.40924 -2.17638 
1499 2 2.55539 4.61442 -2.84011 
1981 2 1.39212 4.10492 -2.7706 
478 1 1.58402 3.32748 -3.43937 
896 1 2.34981 3.3524 -2.8167 
1042 2 2.93235 5.09952 -3.72683 
1997 2 2.09182 4.2254 -2.29196 
1764 2 3.39317 4.84986 -2.35511 
448 1 3.4968 3.8478 -2.68042 
262 1 4.39742 4.03925 -2.44393 
370 1 5.80869 4.56436 -2.50541 
775 1 5.12818 4.3382 -3.08059 
166 1 5.15644 4.18864 -1.81496 
993 1 -5.04006 5.18218 -3.59525 
579 1 -5.5125 4.94845 -2.95572 
952 1 -5.0925 4.80039 -2.21328 
589 1 -4.17013 5.17731 -2.09204 
342 1 -4.32708 5.41294 -2.8266 
1957 2 -3.18928 5.10229 -3.45355 
1601 2 -2.50989 4.86114 -2.46238 
119 1 -3.34715 5.40548 -2.01656 
1236 2 -2.22766 5.04273 -3.35909 
1339 2 -1.69369 5.0022 -2.24887 
1571 2 -1.42378 5.54141 -3.04875 
1818 2 -0.71463 5.67486 -2.58805 
86 1 -0.282104 4.79688 -3.11234 
836 1 0.281322 4.7547 -2.53946 
564 1 0.821614 5.19921 -3.23481 
652 1 1.52075 5.36258 -2.74544 
41 1 2.39503 5.68927 -2.80648 
1559 2 3.50611 5.03955 -3.12282 
1714 2 4.25406 5.14034 -2.63158 
1090 2 3.91956 4.86373 -1.76193 
1425 2 4.89231 5.61012 -3.08459 
1489 2 -5.67949 5.91468 -2.69188 
2000 2 5.50787 5.49733 -2.32648 
182 1 -4.68635 -4.74098 -1.6246 
988 1 -4.9449 -5.23773 -0.897248 
452 1 -5.66721 -5.13451 -1.77268 
1822 2 -3.79336 -5.83512 -1.36703 
1122 2 -4.45789 -5.59473 -2.05151 
1783 2 -2.39732 -5.06792 -1.77419 
1454 2 -2.88956 -5.34667 -1.21976 
1802 2 -2.37067 -5.66373 -0.238337 
229 1 -2.09581 -5.9178 -2.09717 
1106 2 -1.41698 -4.65465 -1.35772 
337 1 -1.09137 -5.45929 -2.1999 
1613 2 -0.787991 -4.48828 -0.97363 
1843 2 -2.09982 -5.18571 -0.81849 
147 1 0.180661 -5.3589 -0.932359 
459 1 -0.627327 -5.60432 -1.28704 
249 1 1.20479 -5.25385 -0.342829 
661 1 0.51809 -4.9285 -1.62038 
569 1 1.25781 -5.07323 -1.09545 
2019 2 3.07619 -5.08287 -1.50337 
1984 2 2.56556 -5.53698 -1.12004 
1859 2 4.39201 -4.81044 -1.39853 
542 1 4.66058 5.80098 -1.06382 
1749 2 3.83697 -5.23329 -0.821592 
153 1 4.62981 -5.75151 -1.96166 
456 1 -5.74582 -5.55149 -1.02874 
1131 2 5.89272 -4.26704 -1.44703 
1217 2 -5.1427 -3.79946 -1.39864 
1851 2 -4.608 -3.83948 -0.676879 
798 1 -3.75932 -4.38777 -1.8081 
366 1 -3.32573 -4.401 -1.07546 
1387 2 -4.10375 -3.45539 -1.41979 
1442 2 -3.06508 -3.17208 -1.21841 
21 1 -3.13344 -4.05678 -2.21603 
844 1 -2.65057 -4.01299 -1.4672 
71 1 -2.10577 -3.56928 -1.93167 
986 1 -1.60378 -3.51531 -1.27839 
1896 2 -0.467098 -4.19785 -1.75398 
1753 2 0.235324 -4.07694 -1.00226 
1246 2 -0.0716164 -4.5506 -0.401209 
1263 2 0.98772 -3.72988 -1.4739 
1894 2 1.03298 -4.11656 -0.610567 
1923 2 1.84512 -3.44907 -1.28296 
1019 1 1.74699 -4.47184 -1.58672 
550 1 2.43449 -4.19849 -1.98413 
1352 2 2.61589 -3.39335 -0.375183 
286 1 2.48731 -4.39694 -1.04156 
137 1 3.31892 -3.96686 -1.44436 
928 1 3.73208 -3.53174 -2.12188 
605 1 4.51225 -3.41738 -1.76447 
2017 2 4.98222 -4.40331 -1.78159 
636 1 -5.62599 -2.69313 -1.87733 
275 1 -4.93653 -2.72022 -1.27722 
734 1 5.68158 -3.20457 -1.3838 
58 1 -3.92435 -2.22275 -1.64233 
1948 2 -3.40725 -3.00954 -1.94675 
532 1 -4.3861 -2.57815 -0.796557 
1505 2 -2.47449 -2.63743 -1.64959 
1391 2 -1.97694 -2.52856 -0.957405 
1449 2 -2.55642 -3.20295 -0.535494 
1113 2 -1.69527 -2.88266 -0.135052 
677 1 -1.17555 -3.12589 -1.95643 
1069 2 -1.15309 -2.50284 -1.04461 
1796 2 -0.665918 -2.41549 -0.421739 
703 1 0.519058 -2.80792 -1.158 
566 1 -0.154918 -2.81812 -1.66087 
659 1 1.96775 -2.73334 -0.105485 
1143 2 0.720923 -2.17018 0.158638 
215 1 1.40157 -2.71309 -0.683478 
377 1 1.7814 -2.2181 -1.54784 
1947 2 2.68022 -3.14114 -1.19135 
1708 2 3.16573 -2.73811 -1.74639 
1698 2 4.59777 -2.38762 -1.54438 
1028 2 4.77112 -2.61435 -0.630334 
311 1 4.1443 -3.12371 -2.67215 
213 1 5.15764 -3.09685 -2.1322 
1978 2 5.29501 -2.03909 -1.12801 
314 1 5.1857 -3.58943 -0.940662 
1972 2 -4.21596 -0.78995 -2.06498 
1299 2 -4.93185 -1.27157 -1.79114 
958 1 -5.31486 -0.347633 -1.25139 
1025 2 -4.35042 -1.43168 -1.11286 
1940 2 -5.11181 -1.70019 -0.6691 
1128 2 -3.05935 -0.884607 -0.869915 
449 1 -2.78917 -1.7674 -1.28921 
548 1 -2.19622 -1.17385 -1.77527 
1808 2 -0.556017 -1.92043 -1.55383 
683 1 -1.7372 -1.3926 -0.997686 
468 1 -0.991573 -1.05551 -1.02991 
1057 2 0.105231 -1.96437 -0.527349 
757 1 -0.37572 -1.1239 -0.31128 
1916 2 0.390136 -1.52552 -1.39841 
2046 2 1.05115 -1.67309 -0.89541 
1360 2 1.51675 -1.07603 -1.5238 
691 1 2.97833 -1.59866 -1.5215 
1897 2 2.46231 -0.765617 -1.32948 
199 1 2.39508 -2.15388 -0.790453 
1568 2 1.94891 -0.639162 -2.20753 
626 1 3.94302 -1.4554 -1.49827 
1587 2 -5.55607 -1.62629 -1.27875 
867 1 4.52608 -0.880473 -1.86642 
198 1 4.54418 -1.28787 -0.958525 
279 1 5.16525 -0.818975 -1.27849 
876 1 -4.67297 0.103629 -1.62371 
472 1 -4.01284 -0.00664733 -1.05682 
307 1 -3.03441 0.280362 -0.831154 
1507 2 -2.26768 -0.441405 -1.04185 
1771 2 -1.91914 -0.604112 -0.220777 
2043 2 -1.70544 0.0324961 -1.47282 
1323 2 -1.44753 -0.0421343 -0.693988 
1067 2 -0.709485 0.282529 -1.3392 
160 1 0.756607 -0.281072 -1.54511 
1735 2 -0.266475 0.306082 -0.722026 
601 1 -0.068866 -0.6863 -0.967654 
721 1 0.891875 -0.601015 -0.629656 
935 1 0.46262 -0.930111 -0.0601088 
1076 2 3.10423 -0.885825 -0.560703 
121 1 1.57177 -0.0653947 -1.25035 
1314 2 3.1797 -0.432805 -1.78464 
837 1 2.37764 0.21687 -1.14717 
2030 2 4.57043 0.0293548 -1.22031 
1758 2 3.64696 -0.459186 -1.08993 
518 1 5.87303 -0.513678 -1.69514 
1564 2 5.18244 -0.0791957 -0.487952 
1508 2 5.81043 0.618668 -1.57104 
1803 2 5.48664 0.915355 -2.34372 
1724 2 -5.48119 1.20709 -1.97982 
351 1 -5.85781 1.38821 -0.0720023 
2038 2 -4.51874 1.35842 -1.69334 
1059 2 -5.20329 0.798538 -1.15941 
1282 2 -3.62085 1.75756 -2.07246 
1229 2 -3.73176 1.27247 -1.18609 
1520 2 -2.99436 1.68356 -1.48368 
192 1 -2.47916 0.736215 -0.964313 
1776 2 -2.75675 1.59003 -0.648339 
259 1 -1.59428 1.24519 -2.19544 
115 1 -0.89233 1.47672 -1.43067 
919 1 -1.61244 0.848492 -0.526245 
1213 2 0.239148 0.619586 -1.49882 
608 1 0.499453 2.12485 -1.47287 
660 1 -0.0870103 1.65807 -1.08949 
1297 2 0.90834 1.24236 -1.9515 
1860 2 1.40448 1.14276 -1.19999 
1215 2 0.735372 0.674455 -0.737088 
243 1 2.80096 0.537493 -1.83167 
1726 2 2.19918 1.19294 -0.691707 
1158 2 2.25445 1.35377 -1.50079 
783 1 4.22362 1.04957 -0.948236 
104 1 3.44374 0.701345 -1.25675 
1786 2 3.88687 1.97603 -0.597422 
194 1 5.23862 1.8306 -2.12219 
110 1 4.69402 1.47238 -1.55231 
761 1 -5.86863 1.97503 -1.53504 
516 1 -4.89703 2.1949 -1.40514 
966 1 -5.52171 1.71309 -0.661408 
1105 2 -5.19116 3.14879 -1.12526 
879 1 -4.55101 1.87504 -0.546559 
323 1 -3.32554 2.81042 -1.19387 
26 1 -2.61639 3.35481 -1.73094 
460 1 -2.5001 3.04769 -0.889922 
1839 2 -2.25641 2.2329 -1.69895 
2021 2 -0.694534 2.79048 -1.59474 
1092 2 -1.1277 2.25646 -0.834526 
1247 2 0.0134971 2.94959 -1.26797 
823 1 1.0163 2.0122 -0.76125 
945 1 1.3957 2.47213 -1.61292 
747 1 2.26737 2.47257 -1.14082 
1107 2 0.855279 3.36632 -1.20988 
1866 2 2.99654 1.6944 -1.1025 
143 1 2.64129 2.93103 -1.63938 
828 1 3.01492 3.37916 -2.18004 
1368 2 3.66805 2.18511 -1.574 
510 1 3.34921 3.14004 -1.12964 
181 1 4.23031 3.15693 -0.880778 
1330 2 5.56622 2.73568 -1.16727 
1527 2 -5.82141 3.11405 -1.80487 
1328 2 -5.74174 2.72166 -0.620733 
1686 2 4.45937 2.44 -1.5443 
355 1 -5.76016 4.32512 -1.64058 
974 1 -5.16448 4.16405 -0.964472 
1419 2 -4.39602 3.6189 -1.63827 
506 1 -5.91455 3.91575 -0.487096 
1853 2 -3.39632 3.93841 -1.17121 
641 1 -4.65275 4.14972 -0.0561576 
1072 2 -4.04796 3.47684 -0.892675 
520 1 -1.74378 3.54143 -1.19579 
1992 2 -3.04407 4.31685 -1.82401 
1348 2 -2.62372 4.20197 -0.974833 
1155 2 -3.11249 3.88368 -0.352796 
720 1 -0.846316 3.97276 -1.48179 
1023 1 -0.914436 3.46664 -0.650274 
1679 2 0.488615 3.55912 -2.01484 
361 1 0.271722 4.45567 -1.75875 
165 1 0.668523 4.24586 -0.799557 
1968 2 1.18425 3.92233 -1.96745 
1428 2 1.77092 3.84814 -1.45742 
187 1 0.918619 4.77553 -1.31049 
1854 2 2.87092 4.33002 -1.78093 
1868 2 3.60748 4.48768 -1.20621 
552 1 3.82496 3.70365 -1.81425 
432 1 4.54268 3.76781 -1.45209 
1234 2 3.9903 4.22947 -0.478183 
582 1 5.48971 3.8663 -1.17286 