ITEM: TIMESTEP
46300
ITEM: NUMBER OF ATOMS
2048
ITEM: BOX BOUNDS pp pp pp
-5.9377724428535119e+00 5.9377724428535119e+00
-5.9377724428535119e+00 5.9377724428535119e+00
-5.9377724428535119e+00 5.9377724428535119e+00
ITEM: ATOMS id type x y z 
1390 2 -4.66631 -4.82345 -4.93563 
1090 2 -5.44757 -4.66964 -5.24298 
443 1 -4.69693 -5.42593 -5.83085 
181 1 -5.21766 -5.75773 -5.34363 
14 1 -3.92667 -5.41016 -5.58164 
426 1 -3.22508 -5.03464 -5.48928 
412 1 -2.29581 -4.53974 -5.34804 
2029 2 -1.57508 -5.3923 -5.26726 
1746 2 -0.222311 -4.90504 -5.21798 
1374 2 0.318246 -5.1421 -4.71982 
350 1 1.36205 -5.48341 -5.48712 
648 1 2.27033 -5.07866 -5.45394 
481 1 3.02891 -4.83095 -5.57012 
1114 2 4.29956 -5.81789 -5.09752 
1661 2 5.29435 -5.52312 -4.90909 
675 1 3.76254 -4.97115 -4.93527 
1774 2 -5.92151 -5.19843 -4.66383 
1244 2 4.90308 -5.42075 -5.82859 
1677 2 5.52253 -4.93022 -5.61259 
40 1 -4.91659 -3.48456 -5.04137 
450 1 -4.69825 -3.18524 -5.81502 
826 1 -5.69349 -3.52382 -5.83404 
49 1 -5.84934 -3.97606 -4.82961 
1759 2 -4.71693 -4.32382 -5.69869 
1961 2 -3.84077 -4.36744 -5.05226 
1467 2 -4.37494 -4.00692 5.45241 
1849 2 -3.74096 -3.88124 -5.75521 
1472 2 -3.03088 -3.73212 -5.24262 
77 1 -1.49241 -4.34601 -5.38318 
738 1 -0.850759 -4.15141 -5.00874 
202 1 -0.171083 -4.06489 -4.62825 
107 1 0.302859 -3.73771 -5.44842 
1486 2 0.83946 -4.58765 -5.44935 
169 1 -0.475737 -3.70953 -5.75288 
1790 2 1.20749 -4.78372 -4.669 
855 1 1.15904 -3.50377 -5.05253 
1563 2 1.61013 -4.08489 5.77579 
1081 2 1.81008 -4.29153 -5.2677 
1291 2 2.32785 -3.57721 5.8477 
929 1 4.52899 -4.4072 -5.32378 
1260 2 3.51954 -3.8927 -4.59821 
237 1 3.87394 -4.40071 -5.89525 
102 1 5.25081 -4.34281 -4.71076 
809 1 5.42546 -3.85892 -5.5098 
1478 2 -5.32501 -2.54566 -5.37045 
1465 2 -4.66168 -2.08891 -5.49987 
922 1 -4.01047 -3.03357 -5.2587 
151 1 -3.1048 -2.9868 -4.40733 
1171 2 -3.28021 -1.69156 -4.98447 
465 1 -2.26071 -2.6743 -4.60621 
595 1 -3.09196 -2.65123 -5.25248 
773 1 -2.38804 -2.31598 -5.4324 
504 1 -1.39566 -2.22463 -4.61683 
1630 2 -1.91793 -3.52096 -4.9685 
1898 2 -1.03385 -3.33836 -4.46758 
1954 2 -1.77395 -3.07611 -5.82651 
1495 2 -1.12316 -3.00305 -5.31942 
1380 2 -0.285116 -2.76529 -5.27544 
1946 2 0.528931 -2.34004 -5.49694 
122 1 1.1038 -3.19281 -5.70251 
1581 2 0.949312 -2.57489 -4.67585 
108 1 1.80652 -2.84813 -5.43461 
819 1 2.89474 -2.72305 -4.88978 
207 1 2.7221 -2.39594 -5.68439 
1984 2 4.47373 -3.63239 -4.63779 
485 1 3.48762 -2.86172 -4.3006 
1745 2 4.24853 -3.23655 -5.37701 
403 1 4.8027 -2.05242 -4.73306 
20 1 3.82805 -2.41292 -4.99986 
1678 2 3.49939 -3.45785 -5.5513 
1491 2 5.06973 -3.10819 -4.77549 
1929 2 -4.3616 -1.68534 5.4505 
748 1 -5.51532 -1.0878 -5.60974 
344 1 -4.66377 -0.989645 -5.27218 
1442 2 -2.84671 -1.31002 -5.52421 
1296 2 -2.09029 -0.789335 -5.95312 
741 1 -1.48073 -2.0708 -5.56731 
1975 2 -2.12777 -1.37846 -5.09207 
8 1 -0.80699 -1.62401 -5.80131 
313 1 -0.643439 -1.85161 -4.95094 
788 1 -0.0359406 -1.43114 -5.37005 
1363 2 1.31282 -1.95734 -5.26277 
1006 1 1.04112 -0.895195 -5.37365 
1578 2 1.68555 -1.54952 5.86508 
916 1 2.06789 -0.736061 -5.12603 
1259 2 2.32248 -1.68935 -5.19621 
1698 2 3.2418 -1.5165 -4.86858 
385 1 4.43069 -1.7943 -5.68015 
1982 2 4.12506 -1.09044 -4.91426 
1087 2 3.21582 -1.20644 -5.63544 
25 1 -5.68843 -1.47965 -4.79765 
932 1 5.4483 -1.28864 -5.91564 
66 1 5.40338 -1.68896 -5.13389 
1148 2 4.98645 -0.791258 -4.81354 
1083 2 -5.12273 0.125961 -5.50577 
1037 2 -5.35795 -0.221879 -4.70144 
1118 2 -5.81429 0.147152 5.78351 
37 1 -3.47365 -0.637589 -5.02721 
833 1 -3.79014 -0.245418 -5.86926 
592 1 -4.58782 -0.727831 5.7656 
1939 2 -4.66041 0.139656 -4.70794 
205 1 -2.72039 0.0886548 -5.68539 
348 1 -2.75467 -0.31178 -4.83352 
1713 2 -1.27903 -0.545917 -5.78421 
1243 2 -1.43008 -0.930685 -5.01258 
291 1 -1.77549 0.358317 -5.62294 
505 1 -1.96062 0.217787 -4.77634 
374 1 -0.939456 0.69217 -5.78967 
1809 2 -0.551466 -0.373993 -5.37087 
2041 2 0.299649 -0.0260818 -5.06598 
830 1 1.56394 -0.462515 5.81535 
1644 2 1.0746 0.0464694 -4.61844 
31 1 2.44954 -0.116577 -5.71664 
1500 2 2.6505 0.723708 -4.7977 
674 1 2.9956 -0.259315 -5.19859 
758 1 4.26656 0.715236 5.7586 
908 1 4.3161 0.178241 -4.85877 
563 1 3.57072 0.223982 -5.35914 
469 1 5.62216 0.675304 -4.8709 
1184 2 5.84214 -0.314704 -5.3017 
1634 2 4.28419 -0.665873 -5.63568 
824 1 -5.61479 1.09124 -5.29481 
1603 2 5.9109 2.06834 -4.96846 
494 1 -4.72883 1.25663 -4.91746 
2048 2 -4.27472 0.52559 -5.44477 
310 1 -4.344 1.64324 -5.50408 
852 1 -3.58007 2.0505 5.97129 
94 1 -3.60744 1.79505 -5.04584 
1256 2 -3.25006 0.74221 -5.09339 
1498 2 -2.36407 1.34428 -5.36185 
1797 2 -1.49275 1.39519 -5.13103 
1876 2 -2.42666 1.05729 -4.53888 
1821 2 -0.686653 1.77026 -5.00631 
615 1 -0.106192 0.879484 -4.99984 
419 1 -1.05248 0.356027 -4.90359 
594 1 0.494108 1.23028 -5.60025 
1223 2 1.70813 0.407295 -5.27135 
570 1 1.31908 1.66266 -5.60155 
451 1 0.87909 1.14317 -4.8139 
439 1 1.70111 1.4037 -4.64313 
1529 2 2.33117 1.06449 -5.72534 
1502 2 3.24659 1.137 -5.37525 
1180 2 4.01967 1.59477 -5.67516 
1210 2 4.48338 2.01404 5.51189 
138 1 4.86499 0.626236 -5.43197 
960 1 5.50648 1.02147 -5.75443 
1729 2 5.23063 2.05249 -5.80575 
1505 2 4.88233 1.67891 -5.173 
1800 2 -4.81771 2.60132 -5.33893 
1179 2 -5.55355 2.40322 -5.75874 
1512 2 -4.10647 2.61205 -4.78316 
1336 2 -4.23969 2.92654 -5.86925 
709 1 -2.943 2.55063 5.69534 
1794 2 -3.585 3.24439 -5.35955 
56 1 -1.95861 2.45303 -5.17488 
956 1 -2.90915 2.44504 -5.28928 
552 1 -2.45343 2.16047 -4.67073 
493 1 -1.30322 2.54387 -4.67022 
727 1 -1.00051 3.1242 -5.48586 
1212 2 -0.870445 2.07621 -5.85098 
1322 2 0.245259 2.31059 -5.44098 
39 1 -0.185733 3.27927 -5.38256 
1058 2 0.650166 2.8037 5.76334 
1054 2 0.569522 2.12595 -4.63437 
1653 2 1.10335 2.61676 -5.23241 
482 1 2.03202 2.00414 -5.2653 
1681 2 2.19373 2.95306 -5.18874 
515 1 2.86008 2.31731 -5.64726 
869 1 3.13842 2.11302 -4.97879 
523 1 3.77869 2.49439 -5.26135 
97 1 4.60809 2.76213 -5.44186 
923 1 3.99347 2.92958 5.76261 
509 1 -5.0553 3.91823 5.83969 
882 1 -4.82256 3.564 -4.93695 
755 1 -5.50957 3.42915 -5.37389 
298 1 -3.50577 4.12359 -4.82244 
733 1 -4.32192 3.98119 -5.49096 
1824 2 -2.88844 3.53876 5.84238 
123 1 -2.68731 4.51032 -5.31624 
1378 2 -2.12322 3.6489 -5.39785 
901 1 -3.56966 4.36229 -5.78299 
1607 2 -1.20938 4.27833 -5.74932 
1142 2 -1.41763 3.9391 -4.95551 
417 1 0.393615 3.85666 -5.79066 
990 1 -0.387322 3.58868 5.57761 
1071 2 0.25942 4.4108 -4.88111 
777 1 1.27652 4.06967 -5.89656 
262 1 0.589597 3.44122 -5.0165 
501 1 2.25231 4.33697 -5.72729 
1016 1 1.68288 3.91818 -5.10137 
255 1 2.59694 4.2826 -5.10365 
1274 2 3.3782 3.51046 -4.99587 
1245 2 2.85534 3.45154 -5.6773 
1640 2 4.5183 3.73655 -5.18614 
1420 2 3.77469 3.88445 -5.66895 
1316 2 4.43077 4.17476 5.67352 
926 1 5.31847 3.2516 -5.87652 
1479 2 5.1406 4.2788 -5.33513 
1376 2 -5.82607 4.42239 -5.17192 
1662 2 -5.05164 4.5798 -4.78955 
1311 2 -4.80009 5.08969 -5.50522 
742 1 -5.48281 5.58068 -4.76567 
1278 2 -3.12108 5.39035 -4.95026 
1688 2 -3.91069 5.42026 -5.45702 
1526 2 -3.10668 5.88106 -5.64475 
1801 2 -2.30963 -5.7508 -5.48769 
1138 2 -2.37492 5.77696 -4.74924 
45 1 -2.03039 5.20974 -5.85519 
797 1 -1.15048 5.32362 -5.09728 
959 1 0.429314 -5.80181 -5.44981 
1304 2 -0.405244 4.58836 -5.65034 
729 1 -0.390526 5.68453 -5.56372 
1013 1 0.300454 5.57295 -4.80283 
1974 2 0.961053 4.78355 -5.25639 
1499 2 1.58912 5.35488 -5.60924 
1926 2 1.7515 4.9467 -4.85202 
1955 2 2.25366 5.75537 -5.78231 
1704 2 3.27054 5.79636 -5.31346 
1145 2 3.99882 5.6434 -4.3243 
1875 2 2.56406 5.39454 -5.07675 
318 1 3.44188 4.70109 -5.23145 
342 1 4.11095 4.60203 -4.56061 
927 1 4.59156 4.97913 -4.92196 
175 1 4.09537 5.01136 -5.67896 
432 1 5.35634 5.29072 -4.96985 
1007 1 5.79954 5.7295 -5.59062 
1453 2 5.59749 4.55284 5.81165 
1239 2 -5.13935 -5.07807 -4.15532 
1714 2 -4.47328 -5.15922 -3.64378 
1192 2 -5.38534 -5.52856 -3.45996 
274 1 -4.41592 -5.79064 -4.85886 
2034 2 -4.02343 -4.72579 -4.17777 
1047 2 -3.65108 -4.73148 -3.47606 
805 1 -3.93027 -5.8604 -3.83917 
229 1 -3.60391 -5.51882 -4.54573 
147 1 -3.12038 -5.68295 -3.79007 
333 1 -2.89143 -5.0774 -4.74903 
5 1 -2.34755 -5.03111 -4.08079 
91 1 -1.79143 -4.71494 -4.59563 
1014 1 -1.6742 -4.97269 -3.75169 
1419 2 -1.63073 -5.79784 -4.46956 
1575 2 -1.12657 -5.91931 -3.92301 
1739 2 -0.192701 -5.45753 -4.21632 
1551 2 -0.802701 -5.3414 -4.85282 
1417 2 0.119392 -5.61982 -3.36318 
1151 2 0.683815 -5.15848 -4.08903 
1429 2 1.54531 -4.89691 -3.9082 
223 1 1.94143 -5.6669 -4.57557 
425 1 1.76315 5.74435 -3.56299 
1353 2 0.979399 -5.44611 -3.30907 
707 1 2.84697 -5.39569 -4.84523 
931 1 2.63995 -5.68811 -4.00024 
1747 2 2.41753 -4.66158 -3.47893 
723 1 3.56151 -5.26438 -4.06212 
64 1 4.34604 -5.21379 -3.62099 
955 1 5.17229 -4.84737 -3.48926 
1846 2 5.67539 -5.68141 -3.92736 
242 1 -4.57849 -3.84138 -3.6782 
516 1 -5.04806 -3.95832 -4.35431 
967 1 -4.13458 -3.48885 -4.63316 
1931 2 -3.33578 -4.12269 -4.42327 
280 1 -3.94428 -3.86613 -3.28967 
273 1 -3.56202 -3.34359 -3.73886 
1112 2 -2.62326 -3.90715 -4.49699 
1425 2 -2.99456 -4.42998 -3.47904 
902 1 -1.01234 -4.64048 -4.24544 
672 1 -0.840401 -5.01797 -3.3858 
1559 2 -2.30313 -4.07796 -3.61584 
1991 2 -1.67437 -3.76119 -4.05448 
1922 2 -0.244421 -3.47356 -3.34983 
765 1 -0.257758 -4.43678 -3.79736 
975 1 2.09934 -3.16127 -4.62668 
1503 2 2.24016 -4.6147 -4.42007 
260 1 0.639347 -4.28831 -3.40147 
497 1 0.702517 -3.95889 -4.33205 
1 1 1.71205 -3.68169 -4.22736 
1344 2 2.73604 -3.93811 -5.21678 
2004 2 2.96756 -4.37566 -4.05607 
547 1 2.30428 -3.52543 -3.30419 
429 1 4.5265 -4.89581 -4.50858 
1609 2 4.35661 -3.88007 -3.81483 
2017 2 3.66973 -4.21013 -3.79278 
1341 2 5.03514 -3.4944 -3.96414 
622 1 5.7009 -4.4052 -3.89914 
1813 2 5.07051 -3.80769 -3.10929 
117 1 -5.58356 -1.95557 -3.88846 
1750 2 -5.15133 -2.93566 -3.93305 
1655 2 -5.11907 -2.45853 -4.59528 
1588 2 -4.17108 -2.09276 -4.70117 
1924 2 -3.4903 -2.03421 -4.26084 
1119 2 -3.48838 -2.37592 -3.38784 
1475 2 -4.29195 -2.62006 -3.85407 
196 1 -2.50376 -3.12791 -3.64024 
1817 2 -2.67738 -2.09132 -3.37371 
236 1 -1.69295 -2.76762 -3.90281 
657 1 -0.779794 -2.24842 -4.07405 
1881 2 -0.233473 -3.20085 -4.18326 
1231 2 0.218036 -2.78409 -4.69593 
1533 2 0.641643 -2.95545 -3.81785 
1326 2 1.48284 -2.57352 -3.87618 
416 1 2.68341 -3.35863 -4.08022 
1580 2 2.25928 -2.48774 -3.53971 
1894 2 3.01845 -2.12493 -3.47598 
1001 1 3.50806 -3.21872 -3.44982 
999 1 4.23233 -2.63961 -4.14953 
1937 2 -5.8004 -2.99496 -4.66938 
1705 2 5.85598 -3.31108 -3.82867 
948 1 4.89297 -2.5134 -3.53366 
587 1 -4.86853 -1.28261 -4.45162 
914 1 -5.25545 -1.93135 -3.0837 
1279 2 -5.06844 -0.769498 -3.05532 
532 1 -4.70875 -1.73236 -3.71889 
212 1 -4.07475 -0.968234 -4.5417 
1664 2 -2.62841 -1.68529 -4.21631 
1097 2 -1.766 -1.46457 -4.20351 
1345 2 -0.925114 -1.04333 -4.35782 
1911 2 -1.03916 -1.33695 -3.51086 
1414 2 -1.89091 -1.92316 -3.25212 
677 1 0.521119 -1.37019 -4.80781 
844 1 0.0304112 -1.86989 -4.2447 
1963 2 -0.185511 -1.04691 -3.63663 
35 1 1.40698 -0.962411 -4.45318 
986 1 2.00918 -1.15485 -3.90108 
427 1 0.807972 -1.51834 -4.00341 
1197 2 2.0337 -2.09678 -4.44414 
1923 2 2.81918 -1.85837 -4.22494 
287 1 2.75831 -1.03804 -3.50627 
715 1 2.74334 -0.636667 -4.52352 
1257 2 3.8314 -1.56018 -3.85806 
1250 2 4.60076 -1.20009 -4.21152 
983 1 3.62073 -0.707442 -3.64151 
784 1 5.55217 -2.09563 -4.29199 
1615 2 5.39121 -1.12326 -3.82856 
1190 2 4.82992 -1.61436 -3.25727 
1978 2 -5.71172 -1.01856 -3.47993 
1174 2 5.87369 -0.739035 -4.35821 
1350 2 -5.09027 -0.499736 -3.94553 
686 1 -5.13738 0.405212 -3.34914 
1960 2 -4.26783 -0.101458 -3.86506 
1964 2 -3.79381 0.331217 -4.53286 
499 1 -3.08945 -0.7759 -4.02497 
214 1 -2.06998 -0.39001 -3.99881 
1206 2 -3.3565 0.0804487 -3.72459 
886 1 -1.30265 -0.0223395 -4.09391 
271 1 -0.65329 -0.0700013 -3.76348 
1057 2 -0.143003 -0.594391 -4.46305 
1673 2 0.599995 -0.403402 -3.9106 
1021 1 0.136981 0.294495 -3.37672 
776 1 -0.422491 0.633884 -4.22476 
1858 2 1.49577 -0.353002 -3.51838 
1468 2 1.91935 0.136846 -4.40612 
517 1 0.991478 0.625004 -3.3204 
1832 2 0.482596 -0.903888 -3.19406 
1220 2 2.58514 0.27004 -3.97155 
163 1 3.63892 -0.321595 -4.37193 
900 1 4.51464 -0.118137 -3.87251 
1314 2 3.30538 0.337257 -3.56099 
872 1 5.24462 0.180911 -4.31001 
125 1 5.25813 -0.0890924 -3.50266 
708 1 5.84733 0.413557 -3.78742 
299 1 -5.4057 0.829885 -4.31963 
921 1 -4.51142 0.910297 -3.83696 
1172 2 -4.68682 1.79441 -3.38858 
1572 2 -5.62308 1.90848 -4.00489 
1204 2 -5.0941 2.21163 -4.66798 
240 1 -4.05456 1.36883 -4.33467 
982 1 -3.45125 1.35274 -3.61277 
1030 2 -3.04532 0.579778 -4.27316 
613 1 -3.17885 1.7622 -4.28643 
124 1 -2.38159 1.88344 -3.57893 
1104 2 -2.20613 0.702832 -3.70165 
2001 2 -1.49117 1.11148 -4.33589 
551 1 0.381881 0.687476 -4.17013 
1967 2 -0.150722 1.73322 -4.18855 
1298 2 -0.767195 1.3703 -3.6825 
1962 2 0.596146 1.79525 -3.78356 
827 1 1.25645 0.947776 -4.09183 
726 1 2.02179 1.2206 -3.70438 
188 1 2.58077 1.5906 -4.35907 
1952 2 3.46801 0.69796 -4.38301 
1986 2 4.13615 1.21912 -4.80423 
178 1 3.34943 1.55018 -3.91057 
1470 2 4.19022 0.830259 -3.92586 
1288 2 5.41443 1.72351 -4.44296 
1320 2 4.83819 1.31923 -4.18076 
171 1 -5.69115 3.19996 -4.57449 
739 1 -5.72032 2.80931 -3.63598 
1000 1 -5.09125 3.3321 -4.10991 
1861 2 -4.45293 2.35108 -4.07468 
1092 2 -3.22388 2.9088 -4.30489 
1485 2 -3.79505 2.32921 -3.39994 
1772 2 -2.78334 3.41858 -4.91806 
1415 2 -2.30996 2.92877 -3.84212 
828 1 -1.74935 2.107 -4.03375 
1959 2 -1.51936 3.08741 -3.34351 
76 1 -0.366968 2.92834 -4.50952 
44 1 -0.865735 2.47085 -3.85457 
448 1 -0.173714 2.62654 -3.44094 
885 1 -0.192102 2.29654 -2.65521 
1834 2 1.6433 2.43911 -4.3579 
1643 2 1.36826 2.01435 -3.74099 
208 1 1.38717 3.156 -3.69114 
1999 2 2.48093 2.46047 -3.82961 
1065 2 2.81034 2.96151 -4.50253 
1158 2 3.22495 2.58933 -3.44686 
762 1 4.59154 2.5246 -4.40953 
1461 2 3.63991 3.17949 -4.26879 
96 1 3.73299 2.07458 -4.4728 
447 1 4.47806 2.04148 -3.73967 
235 1 5.42706 3.07773 -4.95711 
947 1 5.35101 2.62078 -4.01349 
1349 2 -4.79319 4.50174 -3.99605 
1670 2 -5.62459 4.23637 -4.36738 
1562 2 -5.17281 4.10249 -3.38377 
396 1 -4.18861 3.78396 -4.37775 
631 1 -3.39848 3.81355 -3.98602 
1207 2 -4.26374 4.97201 -4.84342 
1365 2 -4.00987 4.56342 -3.50752 
204 1 -2.49856 4.30274 -4.37328 
165 1 -1.78498 4.42611 -3.84258 
1938 2 -1.95134 3.42679 -4.63773 
17 1 -1.00202 4.60538 -2.94575 
2045 2 -1.13489 3.60851 -4.2211 
716 1 0.355505 3.09323 -4.14645 
1997 2 0.36553 4.19502 -4.03133 
1175 2 -0.600418 4.13521 -4.84299 
1170 2 -0.386713 3.86937 -3.83338 
407 1 1.349 3.45643 -4.39453 
1268 2 1.13684 4.12596 -3.61812 
690 1 2.09273 3.43949 -3.6117 
1854 2 1.7798 4.60794 -3.71488 
370 1 2.4244 3.91512 -4.35288 
835 1 3.196 4.36509 -4.47503 
650 1 3.16732 3.97473 -3.72982 
1095 2 4.45325 3.45594 -4.23322 
440 1 4.04406 4.34206 -3.8159 
355 1 4.72257 4.41962 -3.10844 
1969 2 5.36797 3.91379 -4.57327 
1618 2 4.99969 3.49452 -3.53606 
1214 2 5.88262 3.9108 -3.62786 
993 1 -5.36281 5.41315 -4.00089 
918 1 -4.64917 5.66815 -4.14059 
1989 2 -3.60872 5.05665 -4.24505 
1088 2 -2.80471 5.19003 -3.97986 
1413 2 -2.5645 5.17676 -2.98665 
323 1 -1.89657 4.86834 -4.85391 
26 1 -1.15989 4.74053 -4.11967 
1527 2 -1.98004 5.41184 -3.79145 
638 1 -0.394912 5.27103 -4.52809 
41 1 0.271323 5.28353 -3.71696 
925 1 -0.51042 4.79957 -3.49879 
564 1 0.162139 4.7843 -2.96068 
1869 2 1.16293 4.59156 -4.45645 
736 1 1.19114 -5.91643 -4.82712 
1847 2 2.37388 4.98796 -4.18148 
1405 2 3.21745 5.31539 -4.31328 
1764 2 4.56003 5.62246 -3.57395 
1612 2 3.68391 5.3117 -3.49771 
2016 2 4.87579 -5.89048 -4.4174 
166 1 4.96018 4.84251 -4.08864 
946 1 5.59273 4.84979 -3.19703 
399 1 5.76845 5.15491 -4.08531 
1307 2 -5.08052 -5.60185 -2.72694 
1203 2 -4.35777 -5.53682 -2.17202 
878 1 -5.35313 -4.6813 -2.21689 
1103 2 -4.32235 -5.32493 -2.91248 
1548 2 -3.63091 -5.18301 -1.85705 
1699 2 -3.45355 -4.92714 -2.73713 
227 1 -2.44453 -5.57009 -3.38885 
1411 2 -2.79755 -4.86344 -1.87343 
467 1 -2.59554 -5.71816 -2.37685 
30 1 -1.77185 -5.42162 -2.79774 
317 1 -0.858904 -5.44663 -1.79994 
678 1 -0.956127 -5.13045 -2.61945 
286 1 0.0752963 -5.09207 -2.07624 
1818 2 1.14357 -5.65314 -2.45508 
1338 2 1.85941 -5.223 -2.98831 
1236 2 2.66126 -4.86106 -2.65324 
1957 2 1.87135 -5.45084 -2.12009 
43 1 3.51373 -5.60507 -3.30497 
857 1 4.1573 -5.74648 -2.49882 
684 1 -5.82421 -4.76368 -3.07024 
511 1 4.78864 -5.22576 -2.80788 
542 1 5.44675 -5.09026 -2.37871 
483 1 4.88049 -5.65237 -1.78747 
284 1 -5.42357 -4.14448 -3.45719 
1995 2 -5.17471 -3.43967 -2.49421 
724 1 -4.44111 -4.32278 -2.09743 
1592 2 -5.91502 -3.32962 -2.97905 
353 1 -4.89103 -4.40025 -2.93978 
798 1 -3.7785 -3.9977 -2.50242 
1848 2 -2.63952 -4.5083 -2.7469 
339 1 -3.09391 -3.30942 -2.96904 
218 1 -2.8058 -3.75644 -2.17335 
1711 2 -1.09781 -3.84132 -3.3498 
1046 2 -1.72477 -4.25816 -3.04905 
1748 2 -0.985887 -4.01828 -2.54055 
459 1 -0.261401 -4.71269 -2.87056 
1896 2 -0.0940796 -3.69357 -2.51635 
203 1 0.708092 -4.63182 -2.63479 
938 1 1.41602 -3.92502 -3.38728 
277 1 1.43336 -4.36174 -2.48777 
1878 2 0.603459 -3.27636 -2.87474 
981 1 2.10892 -3.93892 -2.48701 
245 1 3.04563 -3.56641 -2.81573 
1082 2 4.19851 -4.41461 -3.10238 
1198 2 3.37998 -4.54588 -2.93671 
1765 2 3.69114 -4.90791 -2.06122 
455 1 3.78493 -3.56492 -2.52568 
976 1 3.3218 -3.86315 -1.9233 
2019 2 5.49003 -4.03233 -2.38247 
1129 2 -4.86754 -2.95517 -3.12944 
140 1 -5.84448 -2.57329 -2.38569 
917 1 -4.96152 -2.03314 -2.27574 
1319 2 -4.19145 -3.08636 -2.11552 
2007 2 -4.26137 -2.6822 -2.78092 
411 1 -2.15241 -3.35694 -2.88541 
1483 2 -3.38443 -2.52834 -2.3822 
1851 2 -2.56146 -2.39267 -2.52716 
150 1 -0.581474 -2.48237 -3.21294 
402 1 -1.32168 -3.16499 -2.31177 
998 1 -1.30825 -2.89108 -3.1223 
246 1 -0.475224 -2.77991 -2.39155 
875 1 0.244983 -2.11828 -3.38196 
691 1 0.338093 -2.36384 -2.56704 
700 1 2.02384 -1.60441 -2.9983 
1066 2 1.44137 -2.98376 -3.05053 
1947 2 3.02929 -2.48035 -2.81364 
1942 2 2.15323 -2.73928 -2.71254 
928 1 4.2893 -2.97221 -3.19021 
1641 2 3.93023 -2.31215 -2.47577 
161 1 5.67652 -2.26402 -3.21468 
179 1 4.59071 -3.39228 -1.97144 
136 1 4.98007 -2.82479 -2.63016 
475 1 5.35114 -3.02207 -1.67931 
2035 2 -5.52344 -1.09333 -2.45749 
1725 2 -4.71163 -0.850133 -2.21994 
252 1 -3.83876 -1.29561 -3.60194 
636 1 -4.2643 -1.63832 -2.87825 
682 1 -3.99191 -2.01958 -1.74049 
717 1 -3.47036 -1.54738 -2.40481 
789 1 -3.06127 -1.12015 -3.10453 
177 1 -2.53748 -1.19734 -2.42266 
1867 2 -1.05776 -1.61347 -2.63452 
898 1 -1.63839 -0.771314 -2.38738 
1456 2 -0.220784 -1.33616 -2.68297 
1568 2 0.504532 -1.22569 -2.25338 
106 1 1.45023 -1.47272 -3.45875 
241 1 1.08905 -1.8926 -2.99842 
2046 2 1.39351 -0.922484 -1.9774 
421 1 2.73432 -1.33502 -2.72238 
1163 2 3.74179 -1.98764 -3.18889 
626 1 3.78114 -1.05709 -2.70636 
145 1 4.32735 -1.03693 -2.16263 
1337 2 5.57046 -1.31591 -2.80937 
1167 2 4.84603 -1.84653 -2.35397 
958 1 -5.3024 0.11336 -2.41885 
489 1 -4.69682 0.172159 -1.79051 
1110 2 -3.52168 -0.172881 -2.82357 
1792 2 -4.29701 -0.51488 -3.20365 
1893 2 -3.77435 -0.63162 -2.10485 
121 1 -2.22045 -0.88519 -3.27992 
1352 2 -2.68402 -0.155772 -2.20287 
234 1 -1.24653 -0.436208 -3.23862 
1683 2 -2.67698 0.142639 -3.12344 
1432 2 -1.95143 0.217539 -2.61489 
963 1 -0.389115 -0.304275 -2.81426 
749 1 0.404382 0.032789 -2.59765 
1680 2 1.22303 -0.662197 -2.79276 
80 1 1.16232 0.349248 -2.49035 
1784 2 3.00332 -0.173109 -2.87312 
1360 2 2.23142 -0.146871 -3.37651 
1059 2 2.18398 -0.447149 -2.41162 
1225 2 4.19105 0.496087 -3.11659 
195 1 4.37091 -0.676102 -3.16806 
1229 2 3.84672 -0.000488296 -2.38226 
1045 2 5.24284 0.779025 -2.7105 
297 1 5.87976 -0.0177361 -3.00098 
42 1 5.07055 -0.466873 -2.6281 
518 1 5.8732 -0.259625 -2.00957 
1564 2 4.76454 0.892966 -3.41039 
1777 2 -5.47328 1.4651 -3.34312 
1839 2 -5.39381 1.07331 -1.62381 
1361 2 -5.00485 1.35378 -2.44326 
189 1 -4.52505 0.45858 -2.74618 
32 1 -3.91703 0.859937 -3.09898 
1689 2 -4.02903 1.70782 -2.57275 
719 1 -2.15858 1.14417 -2.23506 
593 1 -2.87285 1.25147 -2.94917 
561 1 -3.37601 0.936471 -2.35761 
1754 2 -1.37035 0.663363 -3.34349 
183 1 -1.84343 1.65422 -2.9537 
1025 2 0.199544 1.44483 -3.02009 
1550 2 -0.560337 0.91379 -3.01271 
1187 2 1.04026 1.20479 -2.01587 
90 1 1.81088 0.786688 -3.07588 
1884 2 1.03998 1.68042 -2.98836 
1825 2 1.73577 1.8196 -2.39262 
1050 2 1.95753 2.069 -3.18838 
401 1 2.39957 0.874949 -2.44006 
382 1 2.81277 1.2696 -3.19419 
574 1 3.67229 1.41919 -2.99786 
232 1 4.54144 1.7627 -2.85928 
408 1 3.29052 1.00477 -2.33126 
596 1 5.14556 2.30154 -3.18892 
1068 2 5.54813 1.30828 -3.45924 
1654 2 -5.88681 1.02024 -2.41114 
7 1 5.25617 1.71581 -2.2007 
702 1 -4.91881 2.99869 -3.4064 
944 1 -5.02328 2.50991 -2.66697 
446 1 -4.67093 2.47055 -1.89273 
751 1 -3.98078 3.4669 -3.40916 
1983 2 -3.16779 2.03157 -2.3537 
224 1 -4.2014 3.01758 -2.63654 
460 1 -3.60457 3.11747 -2.11036 
1282 2 -3.08588 2.53655 -3.1709 
1183 2 -2.14851 2.62135 -2.87687 
1668 2 -2.31178 2.29694 -2.0329 
115 1 -1.03687 2.08563 -2.92292 
1446 2 -1.31047 2.94455 -2.48323 
823 1 0.721243 2.49159 -2.48443 
143 1 0.628612 2.84111 -3.39854 
896 1 1.64997 3.00316 -2.83495 
1642 2 2.74262 2.24734 -2.85227 
795 1 2.4004 3.13032 -2.41273 
1146 2 4.03299 3.00943 -3.3638 
1786 2 3.6148 2.49003 -2.64549 
2039 2 4.30675 2.52869 -2.09846 
1779 2 4.75381 3.05164 -2.61121 
811 1 5.92032 2.29751 -2.71096 
1686 2 5.13423 2.83113 -1.80702 
1977 2 -5.86576 3.18384 -2.02451 
1105 2 -5.16838 3.64181 -2.65919 
1439 2 -4.43112 3.8499 -1.88193 
589 1 -5.49015 4.73199 -2.46004 
1335 2 -4.40664 4.10729 -2.77679 
1048 2 -3.65414 4.37495 -2.52738 
568 1 -3.23468 3.55407 -2.83723 
474 1 -2.52573 3.96505 -3.4707 
520 1 -2.47485 3.68283 -2.43842 
2033 2 -2.8398 4.6463 -2.29823 
418 1 -1.67739 4.03312 -2.99705 
720 1 -1.75156 3.79844 -2.06539 
1023 1 -0.93914 4.11806 -2.27644 
2047 2 -0.552217 3.49167 -2.97358 
1732 2 0.00398209 3.30257 -2.2706 
1267 2 0.484496 3.81629 -3.09933 
438 1 -0.590582 4.01889 -1.49202 
1406 2 1.50315 4.13876 -2.78078 
1625 2 0.892667 3.52184 -2.11733 
23 1 2.85977 3.53195 -3.10142 
1178 2 2.38271 4.42903 -2.75701 
525 1 3.29438 3.35893 -2.28973 
1362 2 3.05776 4.46879 -2.08743 
437 1 4.73959 4.06674 -2.17079 
786 1 3.85394 3.97842 -2.92254 
1072 2 5.77873 3.38565 -2.84674 
103 1 5.52928 4.38241 -2.50981 
582 1 -4.65927 5.34076 -3.32227 
662 1 -5.40785 5.13727 -3.21361 
93 1 -4.6895 5.12926 -2.38455 
1318 2 -5.72814 5.79771 -2.48159 
974 1 -3.86329 5.57021 -3.08783 
13 1 -3.92501 5.38976 -2.16411 
1636 2 -3.23458 4.74235 -3.27551 
326 1 -3.2584 -5.86719 -2.81953 
1510 2 -1.94072 5.08748 -2.52679 
1211 2 -1.26055 5.54492 -3.11135 
1191 2 -0.556516 5.82596 -3.19723 
1814 2 -1.11227 5.24142 -2.11202 
612 1 -0.196359 4.56103 -2.30266 
1601 2 0.415365 5.86087 -2.5606 
1585 2 -0.452461 5.60569 -2.30418 
340 1 0.936988 5.57071 -4.05241 
131 1 0.965825 5.16375 -3.30402 
361 1 1.76712 5.25866 -2.77203 
905 1 1.07568 4.87681 -2.23839 
487 1 2.57076 -5.87724 -3.18626 
1234 2 2.85885 4.82092 -3.48591 
180 1 3.28361 5.87422 -2.32493 
1428 2 3.4177 4.96265 -2.77181 
1719 2 4.01277 4.93352 -1.9693 
1126 2 5.41591 5.86471 -3.11099 
1418 2 4.48201 5.24461 -2.64265 
1782 2 5.29918 5.46624 -2.26654 
847 1 -4.8213 -4.90104 -1.44874 
991 1 -5.33148 -5.30759 -0.945932 
524 1 -3.9795 -4.38116 -1.35542 
1272 2 -3.59188 -5.78793 -0.936594 
1534 2 -4.37185 -5.85482 -1.22177 
1079 2 -2.9387 -5.3043 -0.972055 
1617 2 -2.00277 -4.93736 -1.34688 
1285 2 -1.87208 -4.55079 -2.24493 
934 1 -0.637378 -5.65884 -1.02133 
1452 2 -0.493336 -4.49557 -0.969219 
832 1 -1.66163 -5.74483 -2.05597 
249 1 0.0875843 -5.40825 -1.2227 
423 1 0.927343 -5.13372 -1.02633 
1571 2 1.38061 -5.91957 -1.52623 
569 1 0.81928 -4.79851 -1.77542 
693 1 1.75794 -4.68694 -0.820019 
1915 2 2.75184 -5.25664 -1.88909 
1611 2 2.22624 -5.47975 -1.28564 
754 1 1.58121 -4.54388 -1.641 
1749 2 2.93239 -5.5311 -0.83489 
1019 1 2.54095 -4.33258 -0.780904 
1859 2 4.59049 -4.78656 -1.46037 
1907 2 3.59957 -5.11222 -1.21947 
130 1 -5.89173 -5.23668 -1.76316 
802 1 5.58346 -5.66564 -1.13507 
1844 2 4.95107 -4.94093 -0.726721 
1201 2 -4.98396 -3.4345 -1.63927 
1737 2 -5.72968 -4.13477 -1.10703 
2002 2 -4.87783 -3.8454 -0.819889 
441 1 -3.28108 -4.03942 -1.54907 
2010 2 -3.95372 -3.35069 -1.05854 
816 1 -3.09255 -4.22522 -0.707491 
398 1 -1.94976 -3.51541 -1.91602 
634 1 -2.38216 -3.92254 -1.21878 
1602 2 -1.13592 -4.53112 -1.62991 
659 1 -1.43081 -3.66647 -1.21685 
1381 2 0.665259 -3.71432 -2.06358 
1812 2 -0.374995 -4.13028 -1.79062 
1973 2 0.36418 -4.1349 -1.16272 
1770 2 1.24594 -3.68337 -1.23688 
1985 2 2.13913 -3.33395 -1.46684 
305 1 2.50095 -4.32096 -1.74936 
137 1 3.26801 -4.19414 -1.17997 
328 1 4.16967 -3.86011 -1.15958 
1528 2 4.53777 -4.28959 -2.23711 
1657 2 -5.73277 -3.82988 -1.86294 
1232 2 5.36048 -4.49272 -1.5182 
321 1 5.36336 -3.80436 -0.353934 
550 1 5.94082 -3.14803 -0.642849 
661 1 -5.73616 -2.69862 -1.52212 
767 1 -5.1304 -2.83478 -0.681877 
58 1 -4.88341 -2.43851 -1.57365 
548 1 -4.2981 -2.45635 -0.803101 
1545 2 -2.41838 -2.50033 -1.81668 
1723 2 -2.23895 -2.80239 -1.13493 
1537 2 -3.29781 -2.92485 -1.57442 
1908 2 -1.42099 -2.35806 -1.59074 
251 1 -0.713183 -3.20023 -1.53376 
1781 2 -0.482818 -2.00188 -1.10377 
324 1 -0.199987 -3.33838 -0.828396 
573 1 0.122893 -2.96172 -1.42062 
11 1 0.664083 -2.59092 -1.7736 
1635 2 0.187084 -2.05186 -0.456213 
1798 2 1.42578 -3.24744 -2.13041 
705 1 1.42673 -1.92731 -2.25278 
566 1 1.48871 -2.35517 -1.30951 
1263 2 2.60029 -2.90602 -1.96197 
1637 2 3.06837 -2.98906 -1.05844 
377 1 2.30091 -2.13528 -1.03586 
1738 2 3.79865 -2.89268 -0.845631 
1128 2 3.46669 -2.77352 -1.87126 
1787 2 4.2586 -2.42306 -1.67292 
311 1 5.10511 -3.6713 -1.17328 
1645 2 5.0499 -2.18123 -1.26099 
1586 2 5.45909 -2.28951 -0.598344 
1237 2 -5.29413 -1.36498 -1.62697 
1667 2 -4.92074 -1.54239 -0.870589 
1492 2 -5.88818 -1.71366 -1.1141 
1434 2 -4.29784 -1.16845 -1.46165 
99 1 -3.47245 -2.05697 -1.0328 
1323 2 -4.25542 -1.44242 -0.532303 
1098 2 -3.65675 -0.898422 -0.785811 
606 1 -2.91258 -1.61307 -1.70641 
1993 2 -1.75606 -2.03373 -2.46796 
951 1 -1.97534 -1.36337 -1.56179 
714 1 -1.17357 -1.12865 -1.33848 
1517 2 -0.628345 -1.83023 -2.0063 
1573 2 0.233575 -1.62489 -1.54815 
842 1 -0.14688 -0.700026 -1.09069 
1682 2 1.06588 -1.34555 -1.33547 
1804 2 1.87053 -1.21343 -1.0241 
1659 2 2.3069 -0.827273 -1.62127 
1916 2 3.26533 -0.643152 -1.18166 
215 1 2.28551 -1.86208 -1.81812 
846 1 3.19675 -1.96696 -1.25302 
116 1 3.2966 -1.47105 -1.99752 
962 1 4.05739 -1.33803 -1.41779 
1156 2 5.63218 -1.62441 -1.99435 
375 1 4.77307 -1.26209 -0.920475 
278 1 5.17363 -0.680491 -1.65959 
703 1 -5.40896 -0.345261 -1.26868 
737 1 -5.81945 -1.02612 -0.0829762 
912 1 5.71323 -0.735327 -0.877263 
1776 2 -5.7592 0.562358 -0.991883 
692 1 -3.93212 0.379534 -2.0467 
910 1 -4.43389 -0.160698 -1.02435 
301 1 -3.48016 0.333169 -1.23699 
1310 2 -3.1537 -0.553752 -1.42013 
1031 2 -2.31491 -0.67671 -0.865384 
1589 2 -2.07102 -0.157119 -1.54242 
1830 2 -1.03044 0.39952 -2.44854 
449 1 -0.873411 -0.640012 -1.95462 
1972 2 -1.353 0.0586917 -1.41136 
1297 2 -0.828064 0.130438 -0.638682 
95 1 0.0518537 -0.388858 -1.86186 
1826 2 -0.380165 0.395428 -1.42086 
625 1 0.864614 -0.0886529 -1.68571 
430 1 1.54597 -0.160731 -1.00952 
783 1 0.7319 -0.549299 -0.759437 
895 1 1.8497 0.380291 -1.92886 
1819 2 3.11594 -0.317217 -2.06357 
621 1 2.28154 0.132459 -0.965029 
1803 2 4.58222 0.331497 -2.35488 
1921 2 3.93913 -0.230345 -1.58424 
2030 2 5.46331 0.524333 -1.57571 
1953 2 4.68726 0.119622 -1.26978 
1520 2 -4.46282 1.24978 -1.57084 
1724 2 -4.78615 0.797026 -0.697588 
1720 2 -3.7282 1.68244 -1.55679 
2021 2 -2.95307 1.80534 -1.40039 
1727 2 -3.79145 1.19267 -0.798016 
1247 2 -2.80891 1.57235 -0.480551 
660 1 -2.76433 0.816285 -1.48575 
259 1 -1.17547 1.63149 -2.27343 
192 1 -0.794018 1.3673 -1.25341 
911 1 -1.60177 1.03732 -1.24417 
1444 2 0.0675611 1.0029 -2.30962 
919 1 -0.302593 1.88016 -1.82692 
747 1 0.211612 1.81496 -1.05009 
1149 2 1.77832 1.42352 -1.69212 
1436 2 0.373617 0.818043 -1.44463 
50 1 2.85486 0.483522 -1.61558 
1994 2 2.73038 1.63373 -1.38087 
1769 2 2.47846 1.96479 -2.10272 
1866 2 3.43541 1.76683 -0.863665 
194 1 3.58535 0.881747 -1.47425 
731 1 4.26908 1.31924 -1.98723 
837 1 4.43231 1.11784 -1.06208 
858 1 5.22084 1.56603 -1.39423 
920 1 -5.5635 2.19163 -1.70143 
191 1 -5.88714 1.78942 -1.05509 
761 1 -4.99455 1.97268 -1.07781 
1348 2 -5.26658 2.87331 -0.682315 
584 1 -4.08061 2.545 -1.34504 
879 1 -3.20021 2.8291 -0.974196 
1135 2 -2.0474 1.91843 -1.29762 
221 1 -2.37253 2.78586 -0.57746 
1981 2 -1.37198 2.58131 -1.66116 
1943 2 -0.879952 2.43846 -0.937908 
2023 2 -0.567962 2.9234 -1.83866 
1294 2 0.463539 3.04358 -1.37158 
394 1 0.543017 2.09781 -1.80779 
1616 2 1.0777 3.15242 -0.76021 
1080 2 -0.267368 2.83192 -0.867156 
653 1 1.59956 2.69587 -1.89841 
906 1 1.29907 2.1818 -1.22717 
256 1 2.18612 2.72958 -1.49899 
641 1 3.14869 2.64259 -0.788504 
258 1 2.97964 2.99635 -1.54055 
1330 2 4.11743 2.09553 -1.35267 
2020 2 3.29924 2.06604 -1.89304 
379 1 3.7518 3.24868 -1.3581 
1522 2 5.0429 2.39912 -0.99384 
1554 2 5.83965 2.79523 -1.14118 
1333 2 -5.1779 3.36306 -1.6597 
774 1 -5.52291 4.05898 -0.910584 
453 1 -4.63905 4.33701 -0.6922 
1992 2 -2.57321 4.37906 -1.59898 
1757 2 -4.42256 3.38349 -1.11472 
1339 2 -3.17802 3.95462 -0.931295 
1056 2 -3.50019 4.10385 -1.67997 
381 1 -2.83994 3.08218 -1.75389 
1646 2 -2.30828 4.27207 -0.713659 
294 1 -1.53956 3.45478 -1.3028 
772 1 -2.23721 3.1071 -1.29936 
813 1 -1.56029 3.04742 -0.242354 
461 1 0.184458 4.04089 -1.01029 
871 1 0.438559 4.36331 -1.87144 
1109 2 1.5353 3.73252 -1.54152 
498 1 1.2115 4.58485 -1.27783 
1730 2 2.18093 4.1774 -1.97213 
1161 2 2.7004 3.98198 -1.36968 
1621 2 2.18126 3.48921 -0.806812 
1423 2 3.3889 3.98424 -0.691164 
1633 2 3.56653 4.51695 -1.47248 
470 1 3.99281 3.64489 -2.08006 
506 1 4.65065 3.60411 -1.25542 
1488 2 4.23306 4.53355 -1.02075 
952 1 5.40012 4.07886 -1.72548 
119 1 -5.68539 4.3898 -1.67599 
510 1 5.55201 3.72214 -0.839863 