ITEM: TIMESTEP
45300
ITEM: NUMBER OF ATOMS
2048
ITEM: BOX BOUNDS pp pp pp
-5.9526251901347047e+00 5.9526251901347047e+00
-5.9526251901347047e+00 5.9526251901347047e+00
-5.9526251901347047e+00 5.9526251901347047e+00
ITEM: ATOMS id type x y z 
1390 2 -4.99379 -4.5211 -4.92414 
1090 2 -5.95774 -4.8789 -5.34624 
443 1 -5.74534 -5.69009 5.86808 
346 1 -5.16849 -5.61521 -5.3895 
274 1 -4.25711 -5.47675 -5.01142 
14 1 -4.4462 -5.21669 -5.85265 
426 1 -3.52001 -5.01802 -5.28275 
1526 2 -3.13102 -5.842 -5.8215 
229 1 -3.41475 -5.45116 -4.43471 
1029 2 -2.28247 -5.82482 -5.4081 
1329 2 -1.23792 -5.63965 -5.21222 
1746 2 -0.341624 -5.33904 -5.1335 
1301 2 -0.683085 -5.02187 -5.85133 
1739 2 0.245481 -5.21397 -4.59816 
959 1 0.180349 5.91147 -5.6855 
1374 2 0.39985 -4.76622 -5.62495 
350 1 1.51866 -5.5598 -5.1912 
1151 2 0.954978 -4.8331 -4.82251 
648 1 2.57638 -5.23594 -5.32499 
481 1 3.04656 -4.93019 -5.93548 
1114 2 3.82113 -5.87999 -5.17477 
1661 2 4.48036 -5.76471 -4.58362 
675 1 3.62501 -4.7478 -5.13211 
1774 2 5.14854 -5.29597 -5.18189 
1846 2 5.66251 -5.34479 -4.51141 
40 1 -5.32399 -3.55417 -4.89216 
450 1 -5.5248 -3.39294 -5.72275 
1961 2 -4.01271 -4.09755 -4.96943 
1849 2 -3.06314 -4.01836 -4.62711 
1715 2 -4.37621 -3.98437 -5.92848 
412 1 -2.58468 -4.75459 -5.34993 
1690 2 -2.78176 -3.57376 -5.39412 
1112 2 -1.917 -3.6281 -4.95078 
77 1 -1.68303 -4.48675 -5.35302 
288 1 -1.97658 -4.27908 5.79553 
902 1 -0.835065 -4.48484 -4.83068 
738 1 -1.11456 -4.19954 5.88834 
202 1 -0.479769 -3.93374 -5.57109 
1790 2 1.64644 -4.46977 -5.39485 
855 1 1.22816 -3.60976 -5.08011 
975 1 2.18097 -3.1676 -4.83516 
1081 2 2.81206 -3.89255 -5.58189 
1984 2 3.5671 -3.46676 -5.47007 
723 1 3.90512 -4.96283 -4.14753 
929 1 4.15633 -4.35007 -5.81616 
826 1 5.62936 -3.91916 -5.0288 
429 1 4.35461 -4.46598 -4.84143 
102 1 4.88484 -4.13682 -5.25993 
1588 2 -4.60891 -1.92422 -5.2213 
1478 2 -5.41852 -2.289 -5.05969 
967 1 -4.55602 -3.27282 -4.68038 
922 1 -3.96114 -2.83152 -5.18171 
75 1 -4.7358 -2.99888 -5.49582 
151 1 -3.11038 -2.59338 -5.26874 
741 1 -2.43632 -2.39251 -5.55768 
504 1 -1.82252 -2.47486 -4.90327 
1630 2 -1.2812 -3.15042 -5.41182 
1495 2 -0.542003 -2.73644 -5.67081 
1380 2 0.1796 -2.61001 -5.23077 
1898 2 -0.58359 -2.88945 -4.73991 
1555 2 0.298908 -2.24889 5.82625 
122 1 0.679404 -3.47626 -5.70019 
1363 2 1.64814 -2.22502 -4.97379 
1946 2 1.0457 -2.13674 -5.57852 
108 1 1.84003 -3.14436 -5.59895 
485 1 2.92215 -2.86876 -4.50663 
819 1 2.69557 -2.78084 -5.41359 
939 1 3.44451 -2.43168 -5.42605 
385 1 4.57333 -1.83389 -5.07226 
1745 2 4.34934 -3.09158 -5.84479 
1491 2 5.71801 -2.52747 -5.2165 
1937 2 5.7808 -2.89647 -4.40428 
1341 2 4.87235 -2.90298 -5.07536 
25 1 -5.3186 -1.19241 -4.87038 
587 1 -5.15566 -0.837484 -5.91578 
117 1 -5.85991 -1.56021 -4.32403 
1924 2 -3.78999 -1.75242 -5.02953 
344 1 -4.46571 -0.817942 -5.11653 
1442 2 -2.96827 -1.62032 -4.95558 
1171 2 -3.95353 -1.53719 -5.80272 
1569 2 -3.21333 -1.19365 -5.84446 
1296 2 -2.36643 -1.22311 -5.36039 
1975 2 -2.11802 -1.56643 -4.57045 
1713 2 -1.54818 -0.579238 -5.80737 
8 1 -1.08637 -1.90374 -5.25106 
1243 2 -1.58965 -0.9427 -4.89996 
768 1 -1.80696 -1.93356 -5.8721 
404 1 -0.301814 -1.42465 -5.58677 
677 1 0.204875 -1.53325 -4.85411 
1006 1 0.777679 -1.19694 -5.43957 
830 1 1.40314 -1.12654 -4.63689 
1578 2 1.88993 -1.74832 -5.94977 
1259 2 2.1855 -1.67168 -5.19567 
916 1 2.214 -0.671455 -5.00058 
1700 2 2.77512 -1.42845 5.87807 
1982 2 3.98194 -1.09895 -4.81931 
2014 2 4.63128 -0.590378 -5.37512 
1087 2 3.64576 -1.13568 -5.63552 
932 1 -5.97567 -1.1063 -5.6225 
66 1 5.44517 -1.48477 -5.1357 
403 1 5.14863 -1.96871 -4.24456 
1148 2 4.97868 -0.745706 -4.48986 
1083 2 -4.92172 0.511492 -5.65895 
1037 2 -5.20065 -0.0542183 -4.90424 
1118 2 -5.72794 0.0762906 -5.66839 
1960 2 -4.41155 0.270825 -4.71509 
1964 2 -4.14137 0.647983 -5.44903 
37 1 -3.85081 -0.426307 -5.41702 
833 1 -3.74917 -0.0550406 5.69549 
205 1 -3.04823 -0.35527 -5.22141 
771 1 -2.67148 0.188994 -5.70123 
291 1 -1.85401 0.247911 -5.20963 
1809 2 -0.618871 -0.544931 -5.14393 
848 1 -1.4992 0.82788 6.0023 
505 1 -1.12157 0.516777 -5.01563 
2032 2 -0.429923 -0.137234 -5.81083 
2041 2 0.25696 -0.263956 -5.14002 
1057 2 -0.185658 -0.686252 -4.28034 
31 1 1.58 -0.792933 -5.53235 
1223 2 1.31427 0.227781 -5.27028 
1500 2 2.10445 0.545672 -5.52088 
163 1 3.02797 -0.386965 -5.37129 
1220 2 2.51872 0.498426 -4.83147 
872 1 4.69061 0.554086 -4.94982 
758 1 3.74081 0.124802 -5.59983 
105 1 4.29777 0.546217 5.93272 
1286 2 5.32405 -0.285263 -5.20679 
469 1 5.57622 0.676714 -4.99651 
299 1 -5.64477 0.864046 -4.51244 
824 1 -5.1535 1.38667 -5.05281 
494 1 -4.35687 1.60814 -4.89673 
1775 2 -2.4765 1.51495 -5.85815 
1256 2 -2.46741 0.993928 -5.11289 
2048 2 -3.29532 0.968322 -5.35021 
1797 2 -1.7049 1.71272 -5.6379 
1876 2 -1.00688 1.61612 -4.91951 
1498 2 -1.7092 1.3579 -4.76233 
374 1 -0.401725 0.901174 -5.67274 
615 1 0.0177996 0.729245 -4.7983 
570 1 1.62937 1.48335 -5.25867 
829 1 0.624498 1.16379 -5.37889 
1952 2 3.05384 0.969759 -5.31915 
482 1 1.86222 1.88957 5.82262 
439 1 2.24859 1.42282 -4.34048 
1529 2 2.45558 0.983524 5.84985 
1180 2 3.79786 1.26585 -5.57356 
1210 2 4.91646 1.66098 -5.37604 
138 1 5.15642 0.778766 -5.83124 
960 1 -5.87286 1.10151 -5.50472 
1288 2 5.75988 2.06409 -5.19163 
1800 2 -4.83264 2.761 -5.22359 
1512 2 -4.16955 2.74983 -4.80898 
310 1 -4.08964 1.95895 -5.54424 
852 1 -3.18747 1.84949 -5.08982 
1336 2 -3.86279 3.20442 -5.51042 
709 1 -2.72058 2.53328 -5.46827 
1794 2 -3.24217 3.22308 -4.99026 
815 1 -1.58004 3.14683 5.66424 
493 1 -1.21707 2.63442 -4.62845 
727 1 -0.860227 2.94173 -5.4243 
56 1 -1.94197 2.68015 -5.4243 
1821 2 -0.50686 1.91042 -5.52532 
1322 2 0.260123 2.15418 -5.29569 
39 1 0.0921739 3.14603 -5.03215 
1085 2 0.828223 2.73904 5.49085 
1058 2 0.983916 2.52351 -5.50317 
1054 2 0.618207 2.04477 -4.48911 
1653 2 1.79105 2.39395 -4.56684 
1681 2 1.64199 2.85967 -5.80041 
515 1 2.68893 2.34448 -5.80678 
869 1 2.4535 1.84577 -5.16105 
523 1 3.41304 2.25834 -4.97648 
762 1 4.32242 2.57135 -4.93143 
891 1 3.56601 2.64477 -5.76764 
97 1 5.31348 3.11665 -5.08591 
923 1 4.60466 2.96206 -5.72009 
1603 2 -5.62581 2.52387 -5.69182 
1729 2 5.20632 2.24017 5.86151 
926 1 -5.92997 3.53 -5.31435 
509 1 -5.12637 3.86071 -5.5817 
298 1 -3.50561 4.30197 -5.02223 
882 1 -4.28627 3.98967 -5.00245 
1824 2 -2.84737 3.719 -5.66481 
1756 2 -1.77651 4.073 -5.95347 
1772 2 -2.47532 3.36985 -4.78755 
123 1 -2.52094 4.47289 -4.66419 
1378 2 -1.93052 3.72355 -5.1894 
1593 2 -1.04035 4.52024 5.60603 
1304 2 0.0384889 4.55442 -5.4343 
417 1 0.735158 3.63584 -5.18018 
1607 2 -0.845853 4.15831 -5.4066 
1974 2 0.676228 4.52238 -4.61043 
990 1 0.0700016 3.46949 -5.9015 
777 1 1.43567 3.84077 -5.52944 
491 1 1.87958 4.3973 5.75852 
501 1 1.96346 3.91188 -4.89189 
1016 1 2.91191 4.39325 -4.80445 
255 1 2.38591 4.39982 -5.56403 
1640 2 3.12923 3.40033 -5.25655 
1969 2 4.63495 3.8589 -4.60007 
1479 2 3.98362 3.829 -5.38318 
1376 2 4.81045 4.2646 -5.25448 
409 1 5.28345 3.47184 5.7579 
1662 2 5.63425 4.498 -5.29476 
1837 2 -5.6018 4.90193 -5.66425 
918 1 -4.89245 5.66054 -4.61268 
1311 2 -5.05032 4.70573 -5.00993 
1278 2 -4.08121 5.12616 -4.67731 
1801 2 -2.95193 5.49547 -4.92623 
901 1 -2.89782 4.67331 -5.436 
1138 2 -3.82904 5.53766 -5.33339 
120 1 -1.08311 5.11112 -5.24446 
45 1 -2.05485 4.81655 -5.25784 
729 1 -0.236649 5.42247 -5.03 
638 1 0.43494 5.38065 -4.08648 
1955 2 1.83514 5.39414 -5.42762 
1499 2 1.09206 4.84178 -5.37574 
1704 2 2.73366 5.74513 -5.82242 
1145 2 3.03355 5.80482 -5.04159 
1875 2 2.3651 5.36357 -4.67503 
342 1 3.54904 4.72876 -5.38689 
432 1 4.98615 5.38988 -5.14447 
1007 1 5.50874 5.84786 -5.63219 
181 1 -5.77621 5.68911 -5.06587 
1453 2 5.42098 4.78109 5.79299 
1239 2 -5.52165 -5.05243 -4.53721 
1714 2 -5.0735 -5.30205 -3.83719 
2034 2 -4.50167 -4.68373 -4.3153 
1103 2 -4.36628 -5.111 -3.26435 
147 1 -3.35089 5.94711 -3.58835 
1047 2 -3.63884 -4.89314 -3.47529 
805 1 -4.26051 -5.91335 -4.08336 
333 1 -2.56242 -5.15482 -4.50063 
5 1 -2.6223 -5.49152 -3.7075 
91 1 -1.65823 -4.78695 -4.51185 
672 1 -0.961649 -4.78872 -4.04039 
1551 2 -0.758919 -5.85506 -4.3918 
1014 1 -1.56585 -5.17709 -3.59424 
1429 2 1.24733 -4.85413 -3.94217 
1417 2 -0.233421 -5.65053 -3.84589 
223 1 1.90684 -5.58956 -4.43732 
1503 2 2.05721 -4.5159 -4.18658 
707 1 3.13111 -5.2659 -4.5361 
425 1 2.79729 -5.60057 -3.7215 
931 1 3.72323 -5.4907 -3.38464 
64 1 4.43648 -5.18625 -3.08695 
955 1 4.77535 -4.77156 -3.70906 
1192 2 -5.90763 -5.68842 -3.63996 
684 1 5.61428 -4.71341 -3.39003 
2016 2 5.17213 -5.80906 -3.9497 
1126 2 5.34997 5.72665 -3.11925 
242 1 -5.19959 -3.79779 -3.98281 
516 1 -5.47314 -4.41117 -3.39392 
49 1 -5.88942 -4.20093 -4.26725 
1931 2 -3.66075 -4.32729 -4.20126 
280 1 -4.33126 -3.54686 -3.81668 
196 1 -2.88069 -3.2485 -3.77018 
1559 2 -2.29217 -4.10275 -4.29347 
1425 2 -2.78013 -4.42453 -3.66231 
411 1 -2.32931 -3.21728 -3.13323 
1711 2 -1.51811 -3.81968 -3.9148 
1991 2 -1.08957 -3.50252 -4.46159 
1922 2 -0.878108 -3.73875 -3.2632 
765 1 -0.126937 -4.29998 -4.29853 
107 1 0.146802 -3.87572 -4.96384 
1881 2 -0.445382 -3.46239 -3.96345 
260 1 0.297739 -4.21815 -3.45401 
1344 2 2.43198 -4.18406 -4.80185 
497 1 0.947104 -3.84985 -4.33736 
1 1 1.84269 -3.49604 -4.02963 
1260 2 3.1361 -3.93004 -4.66485 
2004 2 2.74675 -4.42864 -3.61935 
547 1 2.26082 -3.47907 -3.12524 
1236 2 3.63457 -4.46719 -3.23569 
1609 2 4.0902 -3.32233 -4.80439 
2017 2 3.76933 -3.82944 -4.06969 
1082 2 4.4802 -3.82372 -3.63549 
622 1 5.00316 -4.39196 -4.37851 
1705 2 5.46685 -3.67516 -3.55828 
1465 2 -5.34803 -2.5725 -4.2245 
1750 2 -4.73741 -2.77456 -3.49513 
161 1 -5.54729 -2.29172 -2.91595 
273 1 -3.52665 -3.14998 -4.44097 
1119 2 -3.74044 -2.15833 -4.09197 
1475 2 -4.48978 -2.24637 -4.36537 
465 1 -2.62753 -2.8654 -4.49118 
236 1 -1.95425 -3.00252 -3.91352 
657 1 -1.38928 -2.36214 -4.00224 
150 1 -0.607005 -2.4581 -3.61567 
1231 2 0.27032 -3.03186 -4.4221 
313 1 -0.746565 -1.92599 -4.57535 
1581 2 0.940454 -2.58025 -4.79496 
1197 2 1.73555 -2.39605 -4.01634 
1326 2 1.00305 -2.89125 -3.66108 
416 1 2.81325 -3.36988 -3.81199 
1001 1 3.56302 -2.76556 -3.73295 
1923 2 2.48637 -1.97585 -4.27636 
1580 2 2.39717 -2.44162 -3.24701 
20 1 3.80812 -2.32895 -4.75563 
928 1 4.12871 -2.93069 -3.02351 
999 1 4.31896 -2.36184 -3.99877 
1813 2 4.84054 -3.29601 -4.2032 
948 1 4.83348 -2.6556 -3.3434 
784 1 5.71995 -2.13142 -3.66898 
532 1 -4.79746 -1.23588 -4.09391 
914 1 -5.23845 -1.69412 -3.60801 
212 1 -4.09755 -0.938638 -4.38818 
252 1 -3.99765 -1.40176 -3.57881 
499 1 -3.12805 -0.727678 -4.36827 
1664 2 -2.84326 -1.94164 -3.98775 
717 1 -3.20123 -1.11789 -3.5027 
1097 2 -1.6956 -1.50809 -3.8802 
1345 2 -1.00856 -1.04784 -4.19639 
1867 2 -1.0876 -1.64241 -3.16745 
844 1 -0.0718941 -1.98576 -4.15472 
1911 2 -0.354681 -1.14242 -3.57577 
35 1 0.929591 -1.63875 -4.31333 
986 1 1.90813 -1.29282 -3.80066 
700 1 2.07277 -1.32826 -2.93794 
106 1 1.22973 -1.69233 -3.42181 
1698 2 3.1083 -1.482 -5.10673 
1894 2 3.01048 -1.84058 -3.58148 
287 1 2.51338 -0.782621 -4.12155 
1257 2 3.43506 -1.47142 -4.20141 
1615 2 4.38678 -1.19632 -3.99325 
1190 2 5.39116 -1.03248 -3.60685 
1163 2 4.75155 -1.48096 -3.1706 
1174 2 -5.47816 -0.288051 -3.80391 
1184 2 5.92791 -0.580617 -4.42563 
1350 2 -4.63952 -0.193306 -3.89072 
686 1 -5.44626 0.827156 -3.71158 
1110 2 -3.44005 0.442229 -4.67769 
1792 2 -3.86704 0.0668876 -4.00031 
789 1 -2.31363 -0.658186 -3.75535 
1893 2 -3.16672 0.184026 -3.71264 
886 1 -1.61047 -0.0888983 -4.3458 
348 1 -2.45428 -0.122356 -4.69964 
214 1 -1.50531 -0.564795 -3.25175 
1673 2 0.487263 -0.666006 -3.75133 
271 1 -0.68575 -0.155964 -3.27295 
419 1 -0.721736 0.274602 -4.31791 
551 1 0.513108 0.636881 -3.99239 
1644 2 0.952108 -0.324697 -4.51737 
1858 2 1.50801 -0.311594 -3.71469 
1468 2 1.78727 0.112203 -4.52504 
715 1 3.06379 -0.457931 -4.55668 
1784 2 2.81477 0.582862 -4.01403 
1360 2 2.13601 0.20828 -3.78378 
908 1 3.86573 -0.0445769 -4.67388 
1225 2 3.65095 0.966822 -3.60111 
900 1 3.41616 -0.276547 -3.70074 
125 1 4.51098 0.0889451 -4.0262 
708 1 5.43051 0.435465 -4.01677 
297 1 5.12247 -0.0845932 -3.23621 
921 1 -4.71613 1.13719 -4.19391 
1172 2 -5.45464 1.94782 -3.76168 
94 1 -3.62828 1.72305 -4.43322 
240 1 -3.87881 1.16217 -3.73051 
1030 2 -2.74855 0.787007 -4.30807 
613 1 -2.93825 1.54937 -3.80178 
956 1 -2.73697 2.05159 -4.4187 
124 1 -1.86478 2.01992 -3.90889 
1104 2 -1.95564 0.955379 -4.03828 
2001 2 -1.01029 1.2488 -4.07317 
1967 2 -0.27688 1.69997 -4.4017 
1298 2 -0.286269 1.32824 -3.46609 
517 1 1.01369 0.573355 -3.47493 
451 1 1.06379 1.12981 -4.66834 
827 1 1.54191 1.02393 -4.02416 
726 1 2.4942 1.50169 -3.44316 
188 1 2.96696 1.89558 -4.14553 
90 1 1.81212 1.009 -3.22373 
1986 2 4.44899 1.24534 -3.85202 
1314 2 3.49509 0.962749 -4.47267 
1505 2 4.14247 1.41013 -4.68342 
178 1 3.36707 1.86452 -3.38683 
1572 2 5.72404 1.62688 -4.16857 
1320 2 5.10524 1.5868 -4.60668 
1470 2 5.25258 1.33246 -3.50741 
1204 2 -5.34673 2.30474 -4.70865 
1861 2 -4.59843 2.39826 -4.21344 
235 1 -5.78258 3.1884 -4.47672 
171 1 -4.94751 3.20661 -4.04865 
1092 2 -3.47172 2.80775 -4.23731 
1485 2 -4.01213 2.282 -3.56135 
1282 2 -3.09515 2.57285 -3.40371 
1415 2 -2.69803 2.92742 -4.12596 
828 1 -0.951858 2.34329 -3.84749 
552 1 -2.00779 2.31582 -4.72464 
1938 2 -1.79572 3.43804 -4.21954 
1959 2 -2.14898 2.86716 -3.56739 
76 1 -0.304825 2.76151 -4.42051 
448 1 0.264509 3.00732 -3.82351 
1962 2 0.415224 1.67907 -3.77425 
1999 2 2.18881 2.79899 -3.98293 
716 1 0.726331 3.02555 -4.43423 
1834 2 1.2949 2.19301 -3.70444 
1461 2 2.85511 3.05054 -4.4025 
1065 2 2.2343 2.96204 -5.1059 
1146 2 3.80659 3.19766 -3.89002 
96 1 4.07623 2.29177 -3.98302 
1779 2 4.60471 3.09395 -3.07974 
947 1 5.16504 2.53171 -4.39109 
596 1 4.84574 2.28043 -3.57496 
811 1 5.78153 2.65398 -3.68025 
755 1 -5.09028 3.61163 -4.88507 
1349 2 -5.7358 4.48375 -4.54646 
1335 2 -4.82464 4.29688 -3.21965 
396 1 -4.3798 3.7641 -4.13796 
204 1 -3.28318 4.04037 -4.33723 
631 1 -3.72131 3.60948 -3.63423 
474 1 -2.76213 3.96778 -3.79139 
323 1 -2.00153 4.29531 -3.87351 
797 1 -1.52076 4.80384 -4.60694 
165 1 -1.22216 4.61638 -3.66655 
1142 2 -1.12155 3.79206 -4.66615 
1997 2 0.40051 4.09827 -3.87222 
1071 2 -0.256888 4.05516 -4.74387 
1175 2 -0.425841 3.83517 -4.0117 
1869 2 1.16553 4.53722 -3.93433 
407 1 1.57942 3.55715 -3.8392 
262 1 1.30967 3.506 -4.6055 
370 1 2.35354 4.06485 -4.06326 
1095 2 3.84776 3.46711 -4.67276 
835 1 3.63217 4.49019 -4.2195 
440 1 4.37148 4.50383 -3.69647 
650 1 3.15776 4.22914 -3.58052 
1670 2 5.46669 4.02803 -4.56384 
1618 2 4.789 3.43772 -3.88226 
1214 2 5.62844 3.7602 -3.7099 
1207 2 -4.79881 4.55737 -4.17658 
742 1 -5.515 5.44897 -4.06741 
582 1 -4.8802 5.53361 -3.51493 
1088 2 -3.25232 5.08115 -4.1635 
1365 2 -4.0465 4.76751 -3.864 
1989 2 -3.0255 4.87584 -3.29949 
1419 2 -2.29465 5.55458 -4.11153 
26 1 -0.721252 4.94141 -4.3364 
2029 2 -1.78199 5.94642 -4.62923 
1575 2 -1.33151 5.77506 -3.87876 
17 1 -0.22078 4.97284 -3.7381 
41 1 0.852542 5.493 -3.39253 
1013 1 0.762066 5.73743 -4.82796 
340 1 2.05596 -5.90314 -3.59728 
736 1 1.29192 5.86095 -4.06581 
1926 2 1.64343 4.89848 -4.51474 
1847 2 2.0735 4.91944 -3.72483 
1405 2 2.78845 5.32658 -4.01206 
927 1 4.19682 4.97061 -4.82532 
1764 2 3.69889 5.60262 -4.24663 
1612 2 4.50953 5.74313 -3.51843 
166 1 4.92219 4.94555 -4.09919 
946 1 5.8487 4.95859 -3.57927 
399 1 5.5689 5.38923 -4.49198 
1307 2 -5.45928 -5.5899 -2.89433 
1227 2 -4.98825 5.94939 -1.90616 
284 1 -4.98466 -4.72154 -2.12873 
1203 2 -4.58888 -5.52131 -2.59666 
1548 2 -3.97309 -5.53357 -1.88445 
1699 2 -3.53472 -5.07034 -2.65707 
227 1 -2.20898 -5.47203 -3.01236 
1848 2 -2.73706 -4.61994 -2.80816 
1411 2 -2.90005 -5.09976 -1.93168 
1285 2 -2.02182 -4.73762 -2.14075 
678 1 -0.934219 -5.23482 -3.06756 
30 1 -1.53494 -5.60634 -2.53862 
459 1 -0.443171 -4.62418 -3.4444 
1353 2 0.486645 -5.28593 -3.81644 
317 1 -0.695193 -5.29672 -2.16417 
286 1 -0.177277 -4.75934 -2.56444 
1571 2 1.01251 -5.60939 -2.2679 
1338 2 1.222 -5.28882 -3.09664 
1747 2 2.18973 -4.73911 -3.15256 
203 1 0.792002 -4.4698 -2.5716 
1957 2 2.01933 -5.08724 -2.25639 
1915 2 3.01814 -4.75628 -2.47911 
1611 2 2.671 -5.18759 -1.64632 
43 1 3.07302 -5.64958 -2.94015 
857 1 3.96893 -5.63377 -2.45757 
511 1 5.25714 -5.14409 -2.70604 
130 1 5.61533 -5.29916 -1.7669 
878 1 -5.78957 -4.77179 -2.53633 
1995 2 -5.40925 -3.89645 -1.7166 
353 1 -4.74413 -4.25763 -3.06392 
339 1 -3.52093 -3.63422 -3.62395 
1201 2 -4.54921 -3.52301 -1.77503 
724 1 -4.09761 -4.234 -2.19968 
218 1 -3.1159 -3.69459 -2.71853 
398 1 -2.4166 -3.74972 -2.03095 
1046 2 -1.91762 -4.24682 -3.29486 
1748 2 -1.22896 -4.18037 -2.56553 
402 1 -1.90319 -3.28575 -2.3982 
1381 2 0.551552 -3.5761 -1.93613 
1896 2 -0.201191 -3.68425 -2.69417 
1533 2 0.120254 -3.25402 -3.37211 
938 1 1.37945 -4.082 -3.12309 
569 1 1.34038 -4.48866 -1.80036 
277 1 1.81299 -4.02489 -2.37855 
981 1 2.81577 -3.73393 -2.38733 
1528 2 4.83574 -4.30397 -2.05281 
1198 2 4.44353 -4.17102 -2.81522 
1765 2 3.8321 -4.55036 -2.2249 
2019 2 5.3444 -3.73243 -2.64068 
1592 2 -5.56566 -3.49672 -2.64719 
1655 2 -5.73675 -3.13448 -3.49254 
1129 2 -4.84597 -3.248 -2.68035 
140 1 -4.93593 -2.39596 -2.1847 
1319 2 -4.0208 -3.10286 -2.48535 
917 1 -4.1895 -2.04644 -1.96807 
2007 2 -3.73722 -2.53965 -3.22621 
1817 2 -2.99014 -2.26738 -3.26551 
1483 2 -2.9232 -2.68846 -2.42712 
1851 2 -2.09775 -2.3541 -2.34894 
1414 2 -2.094 -1.9303 -3.33703 
1993 2 -1.30448 -1.81581 -2.37717 
998 1 -1.39471 -2.75871 -3.10779 
246 1 -0.897592 -2.82452 -2.45041 
875 1 -0.199398 -2.53126 -2.78651 
427 1 0.322275 -2.13516 -3.47998 
1878 2 0.81462 -3.18169 -2.7372 
1066 2 1.46614 -2.67113 -3.063 
691 1 0.176279 -2.56388 -2.09124 
1798 2 1.38506 -3.23435 -1.85394 
1947 2 3.25707 -2.19546 -2.8488 
1942 2 1.99535 -2.80278 -2.42353 
1250 2 3.86755 -1.48931 -3.4731 
455 1 3.99356 -3.2775 -2.28728 
245 1 3.29694 -3.51728 -3.05059 
179 1 4.79741 -2.93211 -2.351 
136 1 5.43839 -2.43419 -2.92403 
2035 2 -5.59816 -1.45643 -2.19525 
1978 2 -5.49576 -0.902944 -3.06642 
636 1 -4.57281 -1.84311 -2.88997 
1237 2 -4.77474 -1.07122 -2.23495 
682 1 -3.62443 -1.54334 -2.74632 
1434 2 -3.90572 -0.769964 -2.25555 
121 1 -2.68753 -1.16218 -2.85573 
606 1 -3.14248 -1.73673 -1.93213 
234 1 -1.80113 -0.876923 -2.67178 
898 1 -1.47513 -1.00195 -1.91274 
1963 2 0.717549 -0.941578 -2.9255 
1456 2 -0.244667 -1.30914 -2.76374 
1568 2 0.484591 -1.13047 -2.13522 
1517 2 -0.454284 -1.65779 -1.92711 
241 1 0.709941 -2.06673 -2.62299 
705 1 1.60125 -1.74132 -2.28696 
2046 2 1.31994 -0.881676 -2.18065 
983 1 2.93972 -0.812679 -3.19587 
421 1 2.68444 -1.42201 -2.41292 
42 1 4.5717 -0.689435 -2.50348 
626 1 3.63557 -0.749488 -2.67962 
1337 2 5.6625 -1.23942 -2.92146 
1641 2 4.25725 -1.86782 -2.75748 
1167 2 5.15415 -1.56109 -2.30999 
958 1 -5.86141 0.335455 -3.24034 
189 1 -4.69669 0.670303 -3.34639 
1279 2 -4.7399 -0.643192 -2.96797 
489 1 -4.83052 0.334422 -2.55264 
703 1 -5.56782 0.0142598 -2.36515 
32 1 -3.89853 0.708776 -2.93346 
692 1 -4.05905 0.350416 -2.07382 
1725 2 -3.79786 -0.340675 -3.14048 
1206 2 -2.3734 0.206688 -3.4103 
1310 2 -2.72896 -0.595104 -1.61054 
1352 2 -2.99111 -0.244487 -2.48812 
963 1 -0.883924 -0.5054 -2.41809 
1683 2 -2.1513 0.183657 -2.61068 
1830 2 -1.4208 0.393435 -2.22797 
1021 1 -0.0777816 -0.236858 -2.70246 
776 1 -0.0993167 0.196526 -3.6041 
95 1 0.0370528 -0.338906 -1.65342 
1659 2 2.04055 -0.443098 -2.19866 
749 1 0.702704 0.241064 -2.76802 
1832 2 1.42968 -0.487974 -2.99457 
1680 2 2.26082 0.0550158 -2.92655 
1059 2 3.03623 0.511989 -3.22019 
195 1 4.21973 -0.416463 -3.2948 
1229 2 3.57422 0.507034 -2.5196 
1045 2 4.39092 0.71118 -2.9835 
1803 2 4.45616 0.484735 -2.12633 
518 1 5.56243 -0.209504 -2.53361 
2030 2 5.25282 0.645552 -1.94874 
1068 2 -5.84191 1.56553 -3.08063 
1777 2 -5.08101 1.49818 -2.55508 
1689 2 -4.81519 1.94873 -3.45232 
1720 2 -4.31587 1.79121 -2.76234 
982 1 -3.20391 1.09577 -3.18341 
719 1 -2.38184 1.12993 -2.36823 
593 1 -2.42875 1.60086 -3.21932 
1754 2 -1.60692 0.560764 -3.40772 
183 1 -1.5282 1.89981 -3.16649 
44 1 -0.735246 2.0144 -2.86386 
1025 2 -0.0491808 1.04184 -2.60144 
1550 2 -0.866821 0.786981 -3.08009 
1643 2 0.85106 1.55629 -3.02293 
1444 2 -0.522467 0.578747 -2.04463 
80 1 1.50858 0.547646 -2.49592 
1187 2 0.860979 1.27933 -1.94071 
1884 2 1.46327 1.78269 -2.67396 
1149 2 1.66471 1.57838 -1.71367 
401 1 2.27705 1.03019 -2.50498 
382 1 2.89469 1.48517 -2.67851 
447 1 4.16064 1.81644 -2.95685 
574 1 3.83616 1.47625 -2.26181 
232 1 4.67284 1.91078 -2.26095 
1654 2 -5.86169 1.05275 -2.26918 
1564 2 5.24634 1.09657 -2.78943 
739 1 -5.22648 2.95103 -3.26186 
702 1 -4.95758 2.71645 -2.61304 
2021 2 -3.50123 1.69873 -1.89732 
1000 1 -4.30868 3.2475 -3.25796 
751 1 -3.64055 3.13621 -2.41037 
1983 2 -3.46934 2.07672 -2.73352 
1183 2 -2.50915 2.51414 -2.82509 
1668 2 -2.84134 2.10004 -2.00966 
224 1 -2.76564 3.26922 -2.10598 
2047 2 -1.55548 2.96746 -3.00461 
1294 2 -0.733887 3.05322 -2.5603 
2045 2 -1.11767 3.44454 -3.68694 
885 1 -0.215122 2.3664 -3.38277 
823 1 0.0252421 2.01569 -2.25032 
143 1 0.500913 2.69722 -2.80678 
208 1 0.922743 3.15093 -3.34451 
653 1 1.38936 2.87684 -2.44938 
896 1 1.71699 3.40038 -2.99582 
1825 2 2.20888 1.97677 -2.18737 
1050 2 2.0803 2.37337 -3.26405 
1642 2 2.80966 2.53163 -2.72854 
1158 2 2.9001 2.89852 -3.51358 
1786 2 3.6109 2.68736 -2.97327 
1686 2 5.01617 3.00353 -2.1677 
944 1 -5.92109 2.49743 -2.67068 
7 1 5.27723 2.12144 -2.67918 
1977 2 5.94954 3.1677 -1.74398 
1562 2 -5.42299 4.07866 -3.70152 
1105 2 -5.64106 3.94623 -2.7851 
1048 2 -4.26351 4.12743 -2.49031 
1439 2 -4.97741 3.7558 -2.2745 
1636 2 -3.86795 4.53789 -3.08994 
1992 2 -3.5607 4.08196 -1.90962 
568 1 -3.15429 3.47966 -3.12002 
1413 2 -3.09649 4.47417 -2.63862 
520 1 -2.41384 3.63122 -2.83425 
418 1 -1.52143 4.12985 -3.05311 
720 1 -1.78981 3.6909 -2.23237 
612 1 -0.181111 4.46254 -2.10623 
1732 2 0.368944 3.81139 -2.56884 
1170 2 -0.286111 3.7216 -3.1799 
1267 2 0.71779 4.23657 -3.14037 
1268 2 1.50642 4.56953 -3.24112 
1406 2 1.26175 4.1494 -2.45499 
690 1 2.53635 3.83969 -3.18203 
1854 2 2.19722 4.59372 -2.49093 
23 1 3.07199 3.65391 -2.48737 
1178 2 3.01816 4.62847 -2.09644 
437 1 4.48839 4.13426 -3.04199 
786 1 3.75002 3.83792 -3.02698 
525 1 3.95715 3.70886 -2.04207 
1072 2 5.37931 3.49337 -2.79933 
355 1 5.11685 4.56381 -3.17904 
103 1 5.60144 4.48061 -2.29968 
952 1 4.75356 4.06097 -2.20574 
993 1 -5.34189 5.1385 -2.95605 
662 1 -5.3871 4.91542 -2.134 
93 1 -4.44042 5.30653 -2.39034 
974 1 -4.08232 5.48363 -3.14895 
13 1 -3.59713 5.44591 -2.2041 
1527 2 -2.15981 5.13148 -3.36198 
326 1 -3.15913 5.844 -2.78351 
467 1 -2.49382 5.89374 -2.24657 
1510 2 -2.26554 4.75992 -2.545 
1211 2 -1.56582 5.54636 -3.13621 
1818 2 0.331308 -5.6578 -2.84081 
1023 1 -0.628484 4.58569 -2.91173 
1191 2 -0.517879 5.82205 -3.22489 
1601 2 -0.615781 5.5092 -2.20956 
925 1 0.307334 5.04046 -2.87624 
564 1 0.789858 4.91794 -2.10147 
131 1 1.40148 5.52461 -2.91039 
487 1 2.30951 5.73619 -2.7214 
1234 2 2.82614 5.02791 -3.06146 
361 1 1.69579 5.26112 -1.8805 
180 1 3.0331 5.7936 -2.09655 
1428 2 3.70517 5.34392 -3.35811 
1362 2 3.72006 5.03752 -2.57008 
1418 2 4.43702 5.31025 -2.75238 
1318 2 5.90641 5.85713 -2.42743 
1782 2 5.14642 5.33639 -2.23929 
847 1 -5.5743 -5.16398 -1.56707 
269 1 -4.84906 -5.02588 -1.13451 
991 1 -5.79847 -5.5302 -0.721615 
1079 2 -3.343 -5.80321 -1.28009 
524 1 -4.1172 -4.67983 -1.45693 
1272 2 -3.78115 -5.95498 -0.631127 
1617 2 -2.13568 -5.09131 -1.37771 
1873 2 -2.6859 -5.54529 -0.672015 
1477 2 -1.79971 -5.32444 -0.340595 
934 1 -0.981342 -5.81043 -1.41643 
1602 2 -1.18855 -4.42576 -1.77455 
216 1 -0.132641 -5.38285 -1.39045 
1452 2 -0.580047 -4.48611 -1.15296 
1530 2 0.955464 -5.96413 -1.38883 
249 1 0.320452 -4.8839 -1.7772 
754 1 1.83796 -4.58767 -1.0973 
693 1 0.832076 -4.93581 -1.08146 
1864 2 1.78788 -5.95942 -0.507244 
1828 2 1.67458 -5.6052 -1.54071 
1749 2 2.78045 -5.55715 -0.830422 
1859 2 4.29755 -4.78276 -1.57505 
1907 2 3.40067 -5.20173 -1.2864 
1906 2 4.24304 -5.14913 -0.72641 
542 1 4.82437 -5.60773 -2.17208 
802 1 5.34103 -5.6823 -1.11527 
1737 2 -5.86452 -4.25621 -1.01195 
2002 2 -4.93472 -4.06884 -0.952911 
798 1 -3.96167 -4.04243 -2.93938 
1077 2 -4.05424 -3.65951 -0.892487 
441 1 -3.24554 -4.03025 -1.97757 
634 1 -2.50803 -4.04326 -1.12159 
251 1 -1.25947 -3.3091 -1.80438 
659 1 -1.73304 -3.62153 -1.19499 
324 1 -0.843993 -3.38149 -0.873677 
1812 2 -0.244291 -3.95767 -1.95404 
1973 2 0.251525 -3.96245 -1.17687 
1770 2 1.13645 -3.70147 -1.12534 
1277 2 1.91639 -3.70644 -0.6724 
305 1 2.46669 -4.14275 -1.60901 
1019 1 2.58964 -4.49447 -0.693004 
976 1 3.36548 -3.63992 -1.91835 
137 1 3.30727 -4.19055 -1.18094 
328 1 4.28664 -3.54202 -1.57936 
1657 2 5.65617 -4.03002 -1.86263 
1232 2 5.09034 -4.56638 -1.16021 
321 1 4.89208 -3.662 -1.0039 
550 1 5.87268 -3.06318 -1.02767 
661 1 -5.43498 -2.89721 -1.52887 
2010 2 -3.54939 -3.18704 -1.67505 
58 1 -4.723 -2.55054 -1.27891 
99 1 -3.82436 -2.28812 -1.28779 
1545 2 -1.81743 -2.40669 -1.62843 
1321 2 -3.02115 -3.23714 -0.782138 
1723 2 -2.25115 -2.83656 -0.856687 
1537 2 -2.65968 -2.79326 -1.65884 
1908 2 -1.00953 -2.02964 -1.48129 
1216 2 -1.25799 -2.46961 -0.707394 
573 1 -0.525731 -3.03765 -1.62225 
366 1 0.114722 -3.26694 -0.472512 
1781 2 -0.348724 -2.06532 -0.803128 
994 1 0.21822 -2.81161 -1.1937 
11 1 0.96728 -2.29461 -1.53257 
640 1 1.03345 -2.77551 -0.557127 
1985 2 2.19899 -3.17378 -1.50066 
1263 2 2.84372 -2.6384 -2.21788 
566 1 1.767 -2.34673 -1.10366 
1738 2 4.04465 -2.58422 -1.27602 
1128 2 3.70334 -2.26599 -2.10898 
475 1 5.76745 -2.69381 -2.1778 
311 1 5.22233 -3.16116 -1.63041 
1787 2 4.65321 -2.08488 -1.83495 
1645 2 5.16233 -2.28599 -0.932438 
1156 2 5.68373 -1.7998 -1.63324 
1667 2 -4.50351 -1.29321 -1.41136 
198 1 -4.69806 -0.307217 -0.697669 
1492 2 -5.406 -1.75485 -1.35419 
737 1 -5.42618 -0.707112 -0.834204 
912 1 -5.77099 -0.482215 -1.67005 
1323 2 -3.58306 -0.907673 -1.35808 
1835 2 -3.73855 -1.34606 -0.588702 
177 1 -2.234 -1.40487 -2.02359 
167 1 -3.09242 -1.99046 -1.12132 
951 1 -2.37118 -1.59979 -1.15481 
1098 2 -2.92852 -0.899908 -0.599214 
714 1 -1.43365 -1.15719 -1.14719 
449 1 -0.626308 -0.734356 -1.39454 
1573 2 0.19551 -1.57446 -1.53396 
842 1 -0.328931 -1.00201 -0.577086 
1682 2 1.00638 -1.29237 -1.38019 
1916 2 2.44818 -0.710887 -1.65712 
1804 2 1.84903 -1.07489 -1.23882 
1266 2 2.07005 -1.35488 -0.421488 
215 1 2.16307 -1.96715 -1.80884 
846 1 2.84802 -1.83849 -1.25976 
1584 2 2.84374 -0.984086 -0.678713 
145 1 4.33971 -1.0447 -1.66648 
116 1 3.43043 -1.19927 -1.93976 
962 1 3.77116 -1.50229 -1.09699 
375 1 4.53843 -1.33696 -0.761314 
278 1 5.35525 -0.769742 -1.56022 
168 1 5.5134 -0.921965 -0.721782 
910 1 -4.83086 -0.150561 -1.57842 
1520 2 -5.11565 0.778268 -1.17319 
301 1 -3.18797 0.351568 -1.51444 
279 1 -3.96501 -0.0345687 -1.25353 
561 1 -3.13464 0.687956 -2.2712 
1031 2 -2.09336 -0.543939 -0.813494 
1589 2 -2.12209 -0.121945 -1.75814 
1432 2 -1.46472 0.217646 -1.40774 
1972 2 -1.45307 -0.249312 -0.582662 
1826 2 -0.606446 0.458198 -1.27981 
1386 2 0.156281 0.487849 -0.731394 
895 1 1.81129 0.505239 -1.70683 
625 1 0.826188 -0.0902729 -1.86165 
430 1 1.34501 -0.0710013 -1.13915 
783 1 0.51004 -0.58627 -0.923996 
1819 2 2.86552 -0.0104021 -2.27904 
50 1 2.63219 0.77323 -1.76603 
194 1 3.1409 0.515624 -0.821775 
621 1 2.29096 0.175672 -0.958361 
1921 2 3.28858 -0.234834 -1.6087 
1679 2 4.16918 -0.0381745 -1.46716 
1839 2 5.94596 0.611966 -1.47339 
1953 2 5.01111 0.0431879 -1.21801 
1361 2 -4.99498 1.01898 -1.90467 
351 1 -5.57084 1.78092 -1.11025 
1727 2 -4.22183 1.35205 -1.81281 
1247 2 -3.52496 1.23808 -1.07583 
1622 2 -4.31214 1.00917 -0.990641 
660 1 -2.41878 0.965988 -1.42923 
1135 2 -2.90305 1.71092 -1.16199 
259 1 -1.5428 1.20694 -1.22866 
115 1 -1.67874 1.38594 -2.59804 
192 1 -0.638426 1.37321 -1.05795 
1436 2 0.289732 0.859116 -1.61672 
919 1 -0.912502 1.60941 -1.96479 
747 1 0.0121158 1.81516 -1.40561 
1712 2 1.09065 0.831286 -0.994835 
1994 2 1.91697 1.36679 -0.936019 
408 1 3.32325 1.02125 -1.56358 
1769 2 2.623 1.84584 -1.44377 
1866 2 3.48311 1.75216 -0.727253 
731 1 4.42268 1.379 -1.63615 
837 1 3.97454 0.817144 -1.07642 
1330 2 4.07303 2.34255 -1.37866 
858 1 5.30825 1.49234 -1.35074 
920 1 5.74705 1.92819 -1.90434 
761 1 -5.25634 2.28295 -1.7167 
1333 2 -5.12471 3.26041 -1.49053 
584 1 -4.34867 2.2783 -1.25786 
1757 2 -4.8946 3.10247 -0.716291 
460 1 -3.5462 2.79467 -1.51493 
879 1 -3.69754 2.29335 -0.804479 
446 1 -4.34388 2.6169 -2.11487 
1981 2 -2.11591 2.08871 -1.51078 
221 1 -2.85209 2.83825 -1.04834 
1446 2 -1.79795 2.48051 -2.2 
1943 2 -1.36179 2.18132 -1.02264 
394 1 0.808375 2.42938 -1.93067 
2023 2 -1.03178 2.64205 -1.77358 
1616 2 0.0421892 3.21706 -1.95665 
906 1 1.15954 2.32027 -1.18061 
1610 2 0.544314 3.12614 -1.14401 
256 1 1.88192 2.86897 -1.6898 
795 1 2.3422 3.37946 -2.27945 
641 1 2.66341 2.85125 -1.03753 
258 1 3.05759 3.34568 -1.61389 
2020 2 3.29895 2.28794 -1.92955 
2039 2 4.05109 2.72279 -2.2735 
379 1 3.66991 3.13669 -0.848589 
1522 2 5.02347 2.64946 -1.36833 
1554 2 -5.85095 2.73223 -1.02947 
119 1 -5.93123 4.26541 -1.51962 
589 1 -4.83679 4.53543 -1.42662 
1339 2 -3.54028 3.79419 -1.05427 
1056 2 -4.29069 3.65157 -1.50311 
2033 2 -2.79856 4.18647 -1.53545 
1814 2 -2.10541 4.59491 -1.65117 
1971 2 -2.50101 3.98806 -0.778303 
381 1 -2.09617 3.26544 -1.47131 
294 1 -1.19806 3.6375 -1.59106 
1127 2 -1.71461 4.42235 -0.863828 
438 1 -0.846109 3.96985 -2.39599 
461 1 -0.456475 3.95201 -1.44285 
871 1 0.566405 4.56237 -1.29524 
1625 2 0.962217 3.61881 -1.85354 
1109 2 1.29506 3.67755 -1.04838 
498 1 1.12856 4.41274 -0.394735 
1730 2 1.96177 4.18484 -1.71149 
1161 2 2.77052 4.32193 -1.27521 
1621 2 2.09031 3.66587 -0.881327 
1633 2 3.59372 4.61219 -1.47232 
470 1 4.11552 3.61476 -1.27065 
506 1 5.1704 3.87602 -1.42268 
610 1 4.83465 3.45494 -0.574839 
1534 2 -4.52114 5.93014 -1.08253 
1604 2 -5.76844 5.5984 -1.48733 
1807 2 -5.14464 5.36967 -0.878423 
679 1 -4.09348 4.91039 -1.67964 
860 1 -3.59982 5.01022 -1.01483 