ITEM: TIMESTEP
41300
ITEM: NUMBER OF ATOMS
2048
ITEM: BOX BOUNDS pp pp pp
-5.9274230019567495e+00 5.9274230019567495e+00
-5.9274230019567495e+00 5.9274230019567495e+00
-5.9274230019567495e+00 5.9274230019567495e+00
ITEM: ATOMS id type x y z 
1347 2 -5.79288 -4.83443 -5.28439 
1390 2 -4.92093 -4.77086 -4.67206 
961 1 -5.51615 -5.94908 -5.52483 
274 1 -4.59496 -5.71317 -5.00452 
5 1 -2.78264 -5.07933 -5.12561 
346 1 -3.66654 -5.20994 -5.34112 
333 1 -2.37708 -4.49192 -5.71241 
91 1 -2.05812 -4.74682 -4.95363 
1801 2 -1.45721 -5.64046 -5.23595 
1301 2 -0.853287 -5.18421 -5.74365 
1563 2 0.639575 -4.5248 -5.65615 
1746 2 0.0235708 -4.93309 -5.62232 
87 1 0.609044 -5.63053 -5.85948 
1151 2 0.952847 -4.56616 -4.86778 
487 1 2.10139 -5.60439 -4.72986 
223 1 1.80594 -5.31236 -5.5228 
707 1 2.83705 -5.20707 -5.0083 
481 1 3.47959 -4.46586 -5.74027 
1114 2 3.63816 -5.53451 5.91781 
1090 2 3.85007 -5.80472 -5.15964 
675 1 3.66027 -4.75056 -4.79683 
1239 2 4.79172 -5.40382 -5.20618 
1714 2 5.55934 -5.31565 -4.83436 
1759 2 5.31736 -4.97985 -5.8152 
1961 2 -5.06741 -4.44019 -5.47517 
280 1 -5.32697 -3.4282 -5.30755 
40 1 -5.12676 -3.23627 5.82487 
1849 2 -4.00724 -4.21923 -4.87007 
1249 2 -3.37775 -3.80792 -5.49483 
1358 2 -4.15237 -4.12819 -5.73669 
1467 2 -2.60574 -3.65472 -4.94671 
1931 2 -3.305 -4.22375 -4.51529 
288 1 -1.16257 -4.53993 -4.89419 
77 1 -0.526201 -3.97049 -5.53207 
902 1 -0.466471 -4.22272 -4.69126 
855 1 0.22833 -3.68411 -4.9603 
738 1 0.167055 -3.52551 -5.8256 
202 1 1.15876 -3.47709 -4.92748 
1344 2 1.64288 -4.25479 -5.3752 
2004 2 2.26807 -4.25643 -4.74412 
1081 2 2.55975 -3.75127 -5.48437 
1528 2 4.19778 -3.45912 -4.68241 
1678 2 3.63625 -3.41213 -5.76785 
1198 2 4.86478 -3.40608 -4.29423 
723 1 4.29939 -4.4296 -5.29904 
622 1 4.94799 -3.97949 -5.59826 
826 1 5.832 -3.53097 5.86447 
49 1 5.65208 -3.92656 -5.18716 
955 1 5.09967 -4.38522 -4.57368 
1929 2 -4.87006 -2.00272 -5.40485 
290 1 -4.42976 -2.94013 -5.63958 
1341 2 -5.58223 -2.40658 -5.29117 
967 1 -3.63191 -2.89657 -5.03363 
773 1 -2.86869 -2.36615 -5.54101 
595 1 -2.92867 -2.81851 -4.49327 
151 1 -2.25299 -2.44114 -4.97594 
1472 2 -2.00476 -3.32168 -5.56194 
1898 2 -1.18928 -3.05855 -5.04422 
657 1 -1.47953 -2.35895 -4.37247 
1112 2 -1.15399 -2.80498 -5.88421 
1555 2 0.485055 -2.25817 -5.66728 
1630 2 -0.287498 -2.62049 -5.06551 
1495 2 -0.366306 -2.38914 5.89616 
1380 2 0.483319 -2.48507 -4.8733 
122 1 1.78024 -2.91301 -5.63534 
1001 1 2.6816 -2.85378 -4.59477 
20 1 3.40397 -2.35273 -5.43278 
485 1 2.54351 -2.53402 -5.4345 
1813 2 4.34216 -3.13327 -5.43676 
385 1 4.17271 -2.23331 -4.93612 
1082 2 5.06604 -3.08941 -5.04192 
1609 2 5.44019 -2.64577 -5.50655 
117 1 -5.07704 -1.19413 -5.07446 
932 1 5.64597 -1.6437 -4.93782 
592 1 -4.34613 -0.66744 -5.58447 
1755 2 -4.05499 -1.64515 -5.66588 
1588 2 -3.69761 -1.81173 -4.92043 
1475 2 -2.88297 -1.41448 -4.93698 
1296 2 -3.20412 -1.22987 -5.75581 
1713 2 -2.40243 -0.859244 -5.85942 
1664 2 -2.67199 -1.78502 -4.1666 
741 1 -1.39613 -1.9545 -5.16428 
788 1 -0.546557 -1.21621 5.45771 
1975 2 -2.0043 -1.15739 -5.09234 
768 1 -0.709045 -1.45385 -5.43389 
2032 2 -1.03814 -0.615332 -5.04031 
404 1 0.294143 -1.29143 -5.48214 
674 1 1.56973 -0.533769 5.78392 
1946 2 1.54767 -1.77285 -5.30018 
578 1 1.14056 -0.793552 -5.34992 
1923 2 2.18893 -1.96677 -4.58142 
1259 2 2.4831 -1.39764 5.96328 
1982 2 3.09104 -1.4378 -5.25033 
904 1 4.15343 -1.98001 -5.77194 
1087 2 3.81009 -0.971331 -5.5257 
1615 2 4.70649 -0.697048 -5.20558 
66 1 4.96437 -1.73886 -5.52809 
1964 2 -5.76969 -0.055096 -5.84238 
1037 2 -5.40414 -0.223135 -4.81521 
205 1 -3.54743 -0.242371 -5.59241 
1775 2 -4.99809 0.329888 -5.41003 
2048 2 -3.90392 0.51611 -5.01375 
771 1 -2.74552 0.166764 5.78784 
291 1 -1.80346 0.457056 5.69785 
848 1 -1.58844 0.542006 -5.314 
348 1 -2.45576 0.082659 -5.3512 
1243 2 -1.5036 -0.641473 -5.81277 
701 1 -1.03561 0.798662 5.73001 
505 1 -0.796 0.548483 -5.2678 
1271 2 -0.294093 -0.28636 -4.85339 
1809 2 -0.472627 -0.35053 -5.69034 
1223 2 0.570898 0.00408365 -5.29555 
1870 2 1.28766 0.433433 -5.89503 
1500 2 1.29187 -0.0157638 -4.48507 
599 1 1.93892 -0.675641 -5.06413 
900 1 3.16065 -0.0855583 -5.53892 
105 1 3.62954 0.464171 5.76688 
916 1 2.77037 -0.453108 -4.81746 
125 1 3.83 -0.0309372 -4.9196 
138 1 4.24783 0.323698 -5.51494 
2014 2 4.4703 -0.54829 5.71432 
1634 2 5.18181 -0.169021 5.88397 
866 1 4.72292 0.733725 5.99365 
960 1 4.71171 0.470112 -4.83075 
299 1 5.4114 0.727052 -5.52478 
1299 2 5.60837 -0.415386 -5.21707 
921 1 -5.52936 1.12677 -5.14934 
818 1 -5.23483 1.51135 5.42576 
1939 2 -4.34832 0.595207 -5.89723 
824 1 -4.66119 1.55351 -5.57724 
903 1 -3.91277 1.61278 -5.08023 
1736 2 -3.23291 0.944899 -5.62708 
2028 2 -2.376 1.13806 -5.20469 
1433 2 -2.53695 1.55568 5.92251 
1212 2 -0.789748 1.89837 -5.43031 
1821 2 -1.41987 1.50128 -5.0021 
1945 2 -1.62299 1.76835 -5.81182 
594 1 -0.232662 1.12673 -5.82286 
615 1 0.184716 0.93355 -5.1036 
451 1 1.15501 1.40315 -5.3578 
570 1 1.61526 1.30992 -4.67216 
769 1 1.85293 1.7344 -5.75465 
1314 2 2.86447 0.985327 -5.1764 
482 1 3.17445 2.26732 -5.05827 
1529 2 1.96667 0.376571 -4.74824 
1570 2 2.19551 0.750821 -5.59902 
1225 2 3.48231 0.969525 -4.55472 
1502 2 3.98558 1.36969 -5.11236 
1210 2 5.24963 1.62232 -4.89814 
1696 2 4.57849 1.7518 -5.48576 
22 1 -5.8304 1.11556 5.96976 
1403 2 -4.96162 2.87538 5.72236 
1204 2 -5.15292 2.41784 -5.30863 
1800 2 -4.22904 2.51337 -4.73125 
1431 2 -3.21046 3.26557 -5.22768 
1620 2 -4.31815 2.8694 -5.60832 
310 1 -3.31906 2.11178 -5.40622 
1336 2 -2.37087 3.59859 -4.82628 
956 1 -2.27792 2.00589 -4.24446 
94 1 -2.61228 2.29994 -5.04973 
709 1 -2.08334 2.75591 -5.50189 
552 1 -1.11667 2.73951 -4.9193 
815 1 -1.43112 2.8273 5.79143 
1506 2 -0.236233 2.23594 5.81776 
1322 2 0.311178 2.35596 -5.3249 
76 1 -0.12114 3.07613 -4.87259 
1054 2 1.10323 2.64157 -5.77499 
1085 2 1.75936 2.84524 -5.3311 
1967 2 1.1315 2.37037 -4.82895 
1933 2 2.78052 3.16587 -4.9368 
1628 2 2.4089 3.31624 -5.63116 
762 1 4.1039 2.50752 -4.96866 
869 1 3.38778 2.05497 -4.13443 
523 1 3.57795 2.67737 -5.87954 
596 1 4.71601 2.91614 -5.61908 
1572 2 5.84401 2.05174 -5.37705 
178 1 5.1214 2.71616 -4.69167 
235 1 5.70984 3.15896 -5.23379 
676 1 -4.49885 4.31403 -5.78765 
396 1 -5.2172 3.087 -3.81362 
1349 2 -5.6489 4.23231 -4.2709 
97 1 -5.45025 3.35127 -4.87785 
923 1 -4.75258 3.67607 -5.07684 
509 1 -3.80167 4.17985 -5.3717 
1482 2 -2.72405 3.78011 -5.78026 
1824 2 -1.81147 3.7631 -5.59521 
123 1 -2.95763 4.46669 -4.75322 
320 1 -2.87443 4.75365 -5.50001 
1756 2 -0.870591 4.05388 -5.15256 
884 1 0.368117 3.38153 -5.47665 
1378 2 -0.0730059 4.15817 -4.61142 
493 1 -0.630554 3.11628 -5.54189 
1593 2 -0.173881 4.42228 -5.41787 
491 1 0.90738 3.92991 5.70383 
39 1 1.14871 3.64687 -5.00832 
417 1 1.6226 4.10747 -5.57124 
777 1 2.08745 4.15751 -4.91425 
501 1 2.90511 4.49183 -5.39112 
1146 2 3.41962 3.5975 -5.53892 
1618 2 4.25396 3.88708 -5.38893 
1072 2 4.71301 3.62393 -4.54447 
1969 2 5.11453 4.19902 -5.1072 
1376 2 -5.70305 4.44679 -5.11223 
1316 2 5.61508 4.60104 -5.81218 
1837 2 -5.08859 5.1143 -5.66249 
1088 2 -4.1784 5.5487 -5.85228 
1989 2 -3.95653 5.16863 -5.11132 
1662 2 -4.74672 4.96504 -4.92891 
146 1 -1.94954 5.04315 -5.60828 
1539 2 -3.27013 5.62781 -5.474 
1138 2 -2.38982 5.8998 -4.9921 
120 1 -1.255 5.12981 -5.04421 
836 1 -1.11847 5.3703 -5.82421 
1093 2 0.710269 4.8422 -5.49722 
1013 1 0.331572 5.70052 -4.98385 
276 1 -0.3796 5.36767 -4.99092 
959 1 1.08738 -5.61615 -5.20985 
1955 2 1.41351 5.1785 -5.10146 
1704 2 1.87678 5.48892 -5.77077 
1145 2 2.30311 5.32856 -4.98268 
1764 2 2.98576 5.72817 -5.45448 
1847 2 3.28922 5.56153 -4.5427 
318 1 3.7924 4.99168 -5.6989 
432 1 3.66687 4.63271 -4.87732 
399 1 4.41088 4.93531 -4.49527 
927 1 4.47746 5.25331 -5.41097 
181 1 5.09636 5.26333 -4.96331 
175 1 4.74484 5.67647 5.72737 
342 1 5.48613 5.68852 -5.56441 
1103 2 -5.63671 -5.0734 -4.34807 
1699 2 -4.9286 -5.13275 -3.77491 
1203 2 -5.79399 -5.36352 -3.58589 
825 1 -5.11907 5.76043 -4.39198 
805 1 -3.80152 -5.45538 -4.66079 
2034 2 -4.18751 -4.64659 -4.2376 
974 1 -4.32227 -5.91138 -4.0156 
1617 2 -3.27143 -4.68948 -3.59416 
1047 2 -4.05085 -4.9954 -3.28736 
147 1 -2.70567 -5.27813 -4.3007 
467 1 -2.02898 -5.03586 -4.03017 
229 1 -3.34613 -5.66745 -3.89214 
1329 2 -0.65381 -5.51532 -5.05218 
227 1 -1.67655 -5.14454 -3.24157 
2029 2 -1.58495 5.84334 -4.33611 
1551 2 -0.585521 -5.80183 -4.23999 
672 1 -0.747166 -4.95938 -3.487 
1571 2 0.148525 -5.00163 -4.66158 
1747 2 0.210485 -5.5445 -3.92199 
1503 2 1.9139 -4.61505 -4.20928 
1338 2 1.13977 -5.06039 -4.20693 
1828 2 1.80698 -5.0498 -3.50942 
1915 2 2.69759 -4.2646 -3.82445 
931 1 2.58624 -5.55151 -4.06269 
511 1 3.34569 -5.26312 -4.15374 
64 1 3.06036 -5.71191 -3.3049 
442 1 3.9044 -5.30914 -3.47388 
857 1 4.39447 -4.74509 -4.24955 
684 1 5.12445 -4.66359 -3.69288 
1307 2 5.39781 -5.60617 -4.06561 
2016 2 4.77431 5.67328 -3.52224 
516 1 5.92431 -4.32909 -3.53137 
353 1 -5.14328 -4.21905 -3.35748 
196 1 -5.02527 -3.82498 -4.07461 
75 1 -4.43874 -3.2608 -4.7495 
218 1 -4.25246 -3.7367 -3.60859 
465 1 -3.60044 -3.76903 -2.92408 
922 1 -3.66965 -3.4544 -4.01966 
1515 2 -1.70986 -3.68226 -4.67679 
1559 2 -2.56924 -4.0983 -4.19319 
1848 2 -2.41103 -4.24834 -3.25026 
765 1 -1.27018 -4.83373 -4.06251 
1991 2 -0.952544 -3.49728 -4.08238 
1425 2 -1.75456 -3.88055 -3.85112 
107 1 -0.234606 -4.331 -3.89454 
497 1 0.569918 -3.90911 -4.16616 
1881 2 -0.380744 -3.59247 -3.2404 
1 1 1.37081 -3.62608 -4.19272 
416 1 1.90324 -3.11238 -4.84293 
569 1 0.740797 -4.34486 -3.44222 
938 1 1.5666 -3.88548 -3.46947 
2017 2 3.22767 -3.60692 -5.08148 
547 1 2.18742 -3.4482 -3.76861 
1236 2 3.13864 -3.94842 -4.40208 
1657 2 4.05591 -3.84595 -3.89916 
242 1 -5.82799 -4.00164 -4.30997 
2019 2 5.48043 -3.42635 -3.58732 
1592 2 4.75389 -3.76011 -3.29737 
1995 2 5.46886 -3.79141 -2.61632 
1902 2 -5.14678 -2.61379 -4.4513 
1705 2 5.82683 -2.99821 -4.42565 
1465 2 -5.19054 -2.83057 -3.71434 
1655 2 -5.61118 -3.27014 -3.23638 
784 1 -5.34544 -1.93844 -3.53603 
1491 2 -4.43009 -2.23782 -4.57482 
1478 2 -3.45951 -2.10603 -3.98602 
1937 2 -4.21468 -2.62286 -3.64485 
504 1 -2.87676 -3.25061 -3.58972 
1442 2 -3.44317 -2.46818 -3.09575 
236 1 -2.04851 -2.87454 -4.07367 
8 1 -0.682579 -1.90463 -4.52891 
150 1 -1.12513 -2.59305 -3.52186 
1581 2 -0.329417 -3.02686 -4.32143 
35 1 0.413243 -1.85173 -3.78206 
313 1 -0.375173 -2.12602 -3.73725 
1197 2 0.400475 -2.81274 -4.01758 
1894 2 1.29763 -2.62211 -3.84463 
1363 2 1.27614 -2.22669 -4.55464 
1698 2 2.24045 -2.18552 -3.76623 
1580 2 1.94882 -2.64066 -3.07336 
928 1 4.41318 -2.47838 -4.09496 
277 1 2.91037 -3.09582 -3.70775 
245 1 3.47221 -2.72709 -4.56703 
161 1 4.96736 -2.48945 -3.34566 
999 1 5.07361 -2.04766 -4.64874 
948 1 5.58765 -2.18705 -3.96446 
344 1 -4.69779 -1.36152 -4.14548 
212 1 -4.34494 -0.88884 -4.75061 
37 1 -3.27842 -0.476044 -4.62768 
717 1 -3.90942 -1.0891 -3.97476 
532 1 -4.57497 -1.60819 -3.36675 
1414 2 -2.55039 -2.1312 -3.26404 
214 1 -2.87375 -0.776633 -3.71115 
1097 2 -1.82871 -1.40274 -4.19472 
1345 2 -1.17111 -1.04037 -4.19206 
677 1 0.0983626 -1.45696 -4.62739 
1644 2 -0.263752 -0.699677 -3.96952 
830 1 1.01023 -1.24201 -4.40611 
287 1 1.89467 -0.938608 -4.04461 
986 1 1.19024 -1.59208 -3.49677 
421 1 2.66853 -0.812848 -3.96703 
1128 2 3.11388 -1.81313 -4.10509 
1250 2 2.84418 -2.19515 -3.10416 
1190 2 3.92386 -1.52662 -3.88306 
1257 2 3.84386 -1.18358 -4.66196 
403 1 -5.62302 -1.67409 -4.33358 
1286 2 4.77172 -0.991345 -4.46907 
1148 2 4.7348 -1.41032 -3.81431 
1184 2 5.75056 -0.721861 -4.44767 
1350 2 -5.36156 -0.527112 -3.88398 
1110 2 -4.63245 0.145781 -4.61087 
1030 2 -3.6092 0.304777 -4.06106 
1725 2 -4.2391 -0.0927349 -3.81874 
1797 2 -3.15258 0.77169 -4.77165 
1792 2 -3.26313 0.136064 -3.27955 
1256 2 -2.55352 0.612871 -3.96515 
499 1 -2.41808 -0.321872 -4.52194 
789 1 -1.61526 0.0724562 -4.62112 
121 1 -2.02434 -0.405866 -3.83449 
630 1 -0.671932 0.462419 -4.34113 
517 1 0.159049 0.634904 -3.83806 
776 1 -1.25391 -0.0824586 -3.73368 
2041 2 0.450964 -0.426961 -4.17899 
1963 2 0.636003 -0.681079 -3.25849 
1858 2 1.33537 -0.269598 -3.5681 
715 1 3.53211 -0.33701 -4.11113 
1952 2 2.13144 0.14133 -3.97438 
1360 2 3.11654 0.376061 -3.52956 
195 1 4.43119 -0.0681344 -4.10183 
489 1 -5.86404 0.301662 -3.5548 
469 1 5.22122 0.124247 -4.04754 
686 1 5.61216 0.636489 -4.76628 
494 1 -4.71267 1.1666 -4.53173 
1172 2 -5.72435 1.74867 -3.71729 
189 1 -5.61579 0.753349 -4.25834 
240 1 -4.99153 1.00977 -3.77393 
613 1 -3.74277 1.32004 -3.9978 
719 1 -4.26323 0.898598 -3.38833 
982 1 -2.93213 1.53704 -3.48585 
593 1 -2.03776 1.87289 -3.41469 
56 1 -3.03535 1.75693 -4.37871 
1876 2 -1.98063 1.00199 -4.44337 
1498 2 -0.905998 1.3452 -4.40884 
1754 2 -1.68284 0.841911 -3.67319 
1222 2 -0.190984 1.90209 -4.85063 
2001 2 -0.456345 1.47032 -3.64732 
374 1 0.742703 0.90746 -4.53951 
827 1 1.08127 0.767941 -3.59623 
551 1 1.82847 1.19138 -3.94389 
1050 2 0.874537 1.79588 -3.45212 
118 1 2.24746 1.87611 -5.10385 
439 1 2.6292 1.54828 -4.43508 
1220 2 2.84351 0.503608 -4.35049 
382 1 3.68453 1.61283 -3.42049 
1505 2 3.90649 0.685277 -3.85002 
1470 2 5.46296 1.4755 -4.10197 
1986 2 4.85746 1.11175 -3.44785 
1320 2 4.49761 1.32779 -4.35274 
1861 2 -5.72348 1.91512 -4.59869 
1512 2 -4.98914 2.22243 -4.33179 
631 1 -4.81544 2.83208 -2.90111 
1092 2 -3.39264 2.90656 -4.40248 
1485 2 -4.44055 2.13321 -3.70029 
1282 2 -3.60296 2.38718 -3.77843 
882 1 -4.30651 3.23707 -3.38042 
1938 2 -2.5754 3.05469 -4.21439 
1794 2 -2.6722 2.63798 -3.43264 
852 1 -1.78501 2.4107 -4.64085 
1959 2 -1.56963 3.34339 -3.93582 
937 1 -1.35017 2.22853 -3.91959 
716 1 0.738631 3.18405 -4.41801 
1298 2 0.26259 1.75526 -4.0838 
208 1 -0.550387 2.65104 -4.10448 
448 1 0.284946 2.8197 -3.70377 
1962 2 1.35278 2.28247 -4.02237 
394 1 1.36225 3.30153 -3.77372 
1653 2 2.01697 2.61631 -4.55828 
1274 2 2.93997 2.87867 -4.11827 
1461 2 2.32998 2.47025 -3.75394 
188 1 4.2654 2.24038 -3.97874 
1158 2 3.78238 3.07676 -3.59738 
755 1 5.81723 2.86165 -4.33553 
171 1 -5.88928 2.71867 -3.32599 
96 1 5.21391 2.47091 -3.76858 
1311 2 -4.78274 4.439 -4.28774 
1207 2 -5.60226 4.03205 -3.27653 
1977 2 5.90986 3.48191 -2.52419 
1636 2 -4.66291 4.38395 -3.36185 
369 1 -3.79228 4.06717 -4.51319 
926 1 -4.51147 3.45166 -4.27361 
298 1 -3.45986 3.67848 -3.7785 
474 1 -2.72506 4.13544 -3.84315 
733 1 -2.00378 4.65145 -3.98508 
1772 2 -1.51979 3.66599 -4.76301 
1142 2 -0.777673 3.69167 -4.15423 
165 1 -1.04128 4.45885 -3.50285 
1175 2 -0.984044 3.24994 -3.04411 
1304 2 0.322278 3.94814 -3.82856 
1997 2 -0.173814 3.6286 -3.31568 
1042 2 0.786422 4.54384 -4.61333 
1869 2 1.04274 4.44062 -3.85821 
407 1 1.85497 3.58143 -4.36647 
262 1 2.58569 3.76592 -3.78608 
143 1 1.94744 3.31514 -3.1918 
1016 1 2.86127 4.09812 -4.50269 
1214 2 4.53937 3.44179 -3.70947 
1779 2 3.59196 3.42423 -4.63272 
835 1 3.31655 3.9354 -3.35162 
166 1 3.94546 4.19478 -3.97804 
440 1 4.30134 4.31713 -3.09123 
582 1 4.85464 4.63179 -3.70417 
1670 2 5.41053 3.89573 -4.1597 
918 1 -5.3007 5.54165 -3.6966 
443 1 -5.84402 5.47676 -4.69257 
742 1 -5.91607 5.00682 -3.20574 
1365 2 -3.98209 5.00796 -4.23048 
1278 2 -3.16735 5.05912 -3.77275 
577 1 -2.06726 4.69566 -4.90956 
1073 2 -3.11401 5.45593 -4.64752 
1527 2 -2.35606 5.54435 -4.094 
797 1 -1.14001 4.8122 -4.31456 
17 1 0.488637 5.38202 -4.05192 
638 1 -0.303989 5.02639 -4.23843 
41 1 0.699017 5.21455 -3.15976 
26 1 -0.277914 4.94187 -3.38346 
43 1 2.08978 5.84708 -3.7858 
1607 2 1.66272 4.84843 -4.40336 
340 1 1.34241 5.90335 -4.43512 
1926 2 1.90129 4.5218 -3.62178 
1499 2 2.43074 4.97669 -4.14358 
1854 2 2.65942 4.84419 -3.30432 
1846 2 4.00102 5.82748 -4.10488 
1875 2 3.3632 5.06409 -3.76843 
946 1 5.62082 5.03342 -3.97937 
1192 2 4.74342 -5.75041 -4.46359 
1534 2 -5.41911 -5.69565 -2.68552 
284 1 -5.50787 -4.6434 -2.59246 
1411 2 -4.63573 -5.38373 -2.86679 
1807 2 -4.52306 -5.64341 -2.08933 
1477 2 -3.73798 -5.28051 -2.45716 
1285 2 -2.86988 -4.79574 -2.62931 
184 1 -2.55215 -5.43079 -3.41875 
1014 1 -2.13394 -5.67912 -2.6639 
459 1 -0.866269 -5.23434 -2.59503 
678 1 -1.46106 -5.70033 -2.12169 
260 1 -0.0229279 -4.76764 -3.21244 
1818 2 0.472289 -5.72576 -2.8409 
203 1 -0.00713995 -4.94506 -2.42277 
1957 2 0.960203 -5.36809 -3.38523 
1530 2 1.60543 -5.49929 -2.6907 
1765 2 3.48002 -4.34707 -3.61263 
1611 2 2.69893 -4.81607 -3.04508 
1907 2 2.93829 -5.13398 -1.74497 
180 1 2.96658 5.87086 -2.22923 
1859 2 3.249 -4.71493 -2.46553 
19 1 3.72674 -5.65005 -2.73149 
586 1 3.95913 -5.83355 -1.82435 
878 1 4.70614 -5.22104 -3.23875 
130 1 4.64184 -5.51595 -2.36489 
847 1 5.34322 -4.99777 -2.70823 
1126 2 5.62394 -5.88497 -3.06842 
339 1 -4.44831 -4.00521 -2.85268 
1750 2 -5.37235 -3.29613 -2.55986 
798 1 -4.62268 -4.6162 -2.03744 
1319 2 -4.6934 -3.36786 -1.93599 
273 1 -3.85319 -4.22777 -2.24046 
441 1 -2.69943 -3.43366 -2.74216 
251 1 -2.15906 -3.63886 -2.14342 
634 1 -3.00536 -4.02647 -1.91328 
1711 2 -1.20747 -4.03072 -3.13544 
1046 2 -1.82847 -4.48008 -2.57874 
1602 2 -0.982068 -4.27364 -2.22659 
1922 2 -0.277576 -3.81175 -2.51857 
1381 2 0.546317 -3.71503 -2.5214 
305 1 0.863565 -4.70363 -2.29869 
249 1 1.66799 -4.17162 -2.7047 
954 1 1.3228 -4.65007 -1.64963 
754 1 2.49582 -3.66082 -2.9665 
455 1 2.94502 -3.75954 -2.10517 
1232 2 4.03051 -4.38011 -2.85242 
1844 2 4.01461 -4.67974 -2.11122 
981 1 3.27663 -3.38167 -2.97315 
1737 2 4.86529 -4.24351 -2.3697 
1129 2 -5.53622 -3.81628 -1.87135 
914 1 -5.01911 -2.06023 -2.63261 
140 1 -5.69816 -2.49099 -2.0753 
636 1 -4.38296 -2.06521 -1.88849 
2007 2 -3.8614 -2.86481 -2.42413 
1119 2 -4.65744 -3.01559 -2.96722 
411 1 -2.02644 -3.01042 -3.20816 
1817 2 -2.99411 -2.62757 -2.32699 
1545 2 -2.19702 -2.26164 -2.37742 
1993 2 -1.43799 -1.78469 -2.67692 
402 1 -1.34488 -3.13467 -2.63237 
875 1 -0.721953 -2.60331 -2.83773 
844 1 0.160819 -2.16847 -3.00532 
998 1 -0.606565 -2.94576 -2.06217 
1231 2 0.37464 -3.20982 -3.23279 
1326 2 1.22979 -3.05054 -3.04165 
1896 2 1.34188 -3.24936 -2.21752 
106 1 0.914788 -2.11584 -2.71665 
1533 2 2.12473 -2.97659 -2.37756 
1947 2 3.12187 -2.46923 -2.42662 
136 1 3.80336 -2.87305 -3.5707 
179 1 4.29262 -3.13767 -2.69827 
1167 2 3.95869 -2.26455 -2.07724 
1263 2 3.78617 -1.93128 -3.08583 
475 1 5.8226 -2.29199 -3.08573 
550 1 5.12653 -2.81997 -2.42432 
1337 2 -5.55222 -0.847271 -3.07098 
1978 2 -5.6099 -1.21909 -2.32887 
682 1 -4.08511 -1.69603 -2.6647 
1310 2 -4.78697 -0.569157 -3.27244 
951 1 -3.51354 -1.7649 -2.02817 
1174 2 -4.70585 -0.918138 -2.39588 
234 1 -2.9998 -1.29939 -2.80571 
252 1 -3.54753 -1.35256 -3.36674 
271 1 -2.08725 -0.936972 -2.94099 
1867 2 -0.887769 -1.38556 -3.44037 
1911 2 -1.79471 -1.74058 -3.45172 
1673 2 -0.639972 -1.60599 -2.44839 
419 1 -1.64061 -0.965369 -2.1594 
1456 2 0.322981 -1.20182 -2.50188 
1057 2 -0.0696211 -1.06804 -3.26674 
1804 2 0.871216 -1.31813 -1.67129 
705 1 1.93089 -1.39276 -3.19005 
700 1 1.56284 -1.76842 -2.56981 
2046 2 1.10325 -0.778835 -2.28382 
427 1 2.76537 -1.08557 -3.13735 
116 1 2.62412 -1.55144 -2.41903 
1659 2 2.40012 -0.409382 -2.23393 
518 1 4.37588 -0.695871 -2.34379 
241 1 3.46148 -0.930971 -2.50853 
42 1 3.61618 -0.745328 -3.32268 
1163 2 5.58716 -1.08128 -3.55224 
2035 2 5.49836 -1.41977 -2.62735 
1641 2 4.68069 -1.59007 -2.91529 
958 1 -5.7724 0.0724329 -2.70834 
32 1 -5.07933 0.406896 -3.13341 
703 1 -4.95374 0.0902306 -2.35067 
472 1 -4.20947 0.615134 -2.53387 
1893 2 -3.88961 -0.434455 -3.03863 
1206 2 -3.04711 -0.275067 -2.48638 
1104 2 -2.19715 0.271746 -3.16503 
1025 2 -2.22176 -0.088175 -2.40852 
886 1 -1.1727 -0.434209 -2.98475 
1830 2 -1.42899 0.486367 -2.44398 
1683 2 -0.7377 0.537357 -1.96212 
714 1 -0.981293 -0.602532 -2.14849 
1021 1 -0.456925 0.194283 -3.36029 
80 1 0.412123 0.330882 -2.95604 
625 1 -0.177132 -0.252525 -2.64935 
90 1 0.517372 0.017477 -2.21925 
895 1 1.44809 0.43957 -2.4952 
1832 2 1.77459 -0.528224 -2.75076 
1468 2 2.43462 -0.0911349 -3.16482 
1819 2 3.15103 0.0590111 -2.52582 
297 1 4.35813 -0.542464 -3.24585 
1059 2 3.84996 0.34375 -3.03045 
1229 2 3.92026 0.214579 -2.00603 
708 1 5.1018 -0.166431 -3.09729 
912 1 5.26276 -0.452158 -2.316 
1654 2 4.69646 0.703675 -2.65174 
1777 2 -5.04237 1.76892 -3.02208 
1361 2 -5.5084 1.31567 -2.62798 
1727 2 -4.62615 1.36772 -2.18225 
1720 2 -3.74288 1.81218 -2.08919 
910 1 -3.46831 0.572135 -2.10337 
301 1 -3.54583 1.0793 -2.88799 
876 1 -2.55967 0.968617 -1.89262 
561 1 -2.67418 1.07894 -2.65388 
660 1 -1.96535 1.44232 -2.63211 
115 1 -1.66621 1.40223 -1.77444 
1550 2 -0.948306 1.03572 -3.07426 
828 1 -1.28861 2.05419 -3.05169 
1999 2 -0.280988 1.05764 -2.32096 
1884 2 0.297883 1.3087 -2.9241 
1187 2 1.3698 1.53891 -2.51309 
1642 2 1.78253 1.99964 -3.13603 
401 1 1.96072 0.92711 -3.0874 
726 1 2.73944 1.39361 -3.51356 
50 1 2.46638 0.805908 -2.32924 
1825 2 2.04071 1.83175 -2.08079 
408 1 3.04051 1.24586 -2.70635 
574 1 4.00988 1.427 -2.65862 
1953 2 5.50374 0.876894 -2.40713 
1068 2 5.63288 1.21402 -3.18122 
7 1 4.83719 1.68384 -2.2269 
739 1 -5.53509 2.51278 -2.59822 
944 1 5.79136 2.00444 -2.02925 
1689 2 -4.19799 1.83762 -2.90147 
460 1 -4.18976 2.9693 -2.30478 
879 1 -3.44462 3.12676 -1.96234 
1415 2 -3.41166 2.20018 -2.96504 
1247 2 -2.95038 2.02145 -2.04275 
1983 2 -1.9218 2.40709 -1.98746 
1183 2 -2.53649 2.29267 -2.64032 
568 1 -2.6888 3.38971 -2.07146 
885 1 -0.43991 2.50945 -3.30677 
1267 2 -0.225028 3.33924 -2.48076 
1668 2 -1.90949 2.90274 -2.93925 
2047 2 -1.17725 3.04423 -2.34082 
183 1 0.17943 2.38543 -2.65008 
1170 2 -0.414278 2.98522 -1.79853 
653 1 0.932632 2.84347 -3.1783 
478 1 0.876894 2.40929 -2.26098 
906 1 -0.032907 1.91641 -1.76324 
896 1 1.65756 2.8538 -2.64564 
1681 2 2.51032 2.22049 -2.78819 
641 1 2.44099 3.07621 -2.06763 
1065 2 3.0655 2.61596 -3.17924 
1769 2 3.77695 2.20496 -2.00988 
2039 2 3.86296 2.73959 -2.70406 
1105 2 5.03783 2.95186 -2.25375 
447 1 4.57957 2.02608 -3.1298 
811 1 5.45013 2.2537 -2.79557 
1786 2 4.6901 3.13725 -2.9313 
1333 2 -5.18131 3.58376 -2.02996 
1335 2 -5.00336 3.95022 -2.75546 
1048 2 -4.37776 4.02527 -2.06008 
204 1 -3.5115 3.24002 -2.89044 
1339 2 -3.94972 4.23435 -2.71875 
323 1 -2.85018 3.71036 -3.03512 
1413 2 -2.99163 4.80869 -2.92453 
224 1 -2.09843 3.78153 -2.56563 
45 1 -1.81161 4.12765 -3.3969 
418 1 -1.22278 4.1442 -2.50078 
1071 2 0.615021 3.63589 -2.57789 
1023 1 -0.378062 4.42622 -2.57491 
1268 2 1.76974 4.31266 -2.77898 
1974 2 1.02432 4.12684 -3.14074 
1625 2 1.52291 3.91016 -2.11044 
1178 2 2.28915 4.062 -1.66243 
370 1 2.88159 3.49477 -2.84046 
1428 2 2.5207 4.46656 -2.47854 
650 1 3.71894 3.78759 -2.57285 
258 1 4.16972 3.57594 -1.67234 
1562 2 5.37004 3.56714 -3.37023 
437 1 4.68009 3.98936 -2.38407 
93 1 -5.6051 4.78387 -2.3884 
453 1 -4.83056 4.95873 -2.38416 
662 1 -4.79299 5.40166 -3.06111 
1548 2 5.75603 5.65941 -2.36346 
1419 2 -3.86927 4.6856 -3.35048 
13 1 -3.99404 5.40014 -2.38914 
326 1 -3.81104 5.77217 -3.11304 
1510 2 -2.23445 5.42071 -3.33193 
860 1 -2.99781 -5.93542 -2.80122 
1585 2 -2.198 4.86399 -2.46785 
1417 2 -1.28097 5.70756 -3.45107 
1353 2 -0.428522 5.85506 -3.13324 
1575 2 -1.55305 5.22911 -2.72752 
1191 2 -0.625496 5.47969 -2.30126 
564 1 0.465775 4.72896 -2.54848 
1038 2 0.145206 5.66806 -2.08374 
1928 2 1.03011 -5.8492 -2.07932 
736 1 1.32211 5.43788 -3.65792 
361 1 1.63015 5.39942 -2.8878 
131 1 2.42505 5.69992 -2.84781 
667 1 3.14985 5.45489 -1.51899 
1234 2 3.40409 4.95398 -2.82134 
1489 2 3.90615 4.87397 -2.26101 
1405 2 3.98693 5.39369 -3.23867 
355 1 5.28759 4.5559 -2.9435 
1362 2 4.87674 5.39083 -2.58163 
1318 2 5.36845 5.21918 -1.73998 
1227 2 -5.26862 5.80337 -1.85513 
724 1 -5.07795 -4.90687 -1.52885 
153 1 -4.41268 -4.98421 -0.686861 
269 1 -5.90868 -5.47301 -1.10284 
2000 2 -4.66303 5.80365 -1.17958 
633 1 -3.51297 -4.71153 -0.34478 
1272 2 -3.83564 -5.64709 -1.48111 
1079 2 -3.09147 -5.17062 -1.7718 
1454 2 -2.4471 -5.17748 -1.33526 
1261 2 -3.08042 -5.59305 -0.795873 
1535 2 -2.03963 -4.84938 -1.88405 
1040 2 -1.65037 -4.99589 -0.981069 
317 1 -1.04935 -5.80468 -1.2979 
286 1 -0.587729 -5.39945 -1.75898 
693 1 0.360735 -5.13105 -1.65857 
934 1 -0.1507 -5.57481 -0.837875 
85 1 -0.812699 -5.89812 -0.525884 
216 1 0.733201 -5.2261 -0.940166 
1864 2 1.83653 -5.71836 -1.49265 
295 1 1.40928 -4.91284 -0.657012 
1749 2 2.27117 -5.19836 -2.33756 
1742 2 2.52259 -5.56604 -1.07728 
1240 2 3.48834 -5.30566 -0.52963 
1906 2 3.76682 -4.93196 -1.24174 
1487 2 4.55128 -4.55231 -1.48679 
1471 2 4.53002 -5.00817 -0.567042 
991 1 -5.87491 -5.06629 -1.87565 
802 1 5.13985 -5.50348 -1.65807 
490 1 5.29553 -5.86604 -0.640506 
2002 2 5.20927 -4.61386 -0.959082 
1887 2 -5.17741 -3.89714 -1.07205 
1948 2 -5.31947 -4.2187 -0.214196 
524 1 -3.99392 -4.59349 -1.35956 
2010 2 -4.23538 -3.56204 -1.28294 
1723 2 -3.06551 -3.14747 -1.04182 
71 1 -2.37315 -4.27118 -0.489197 
816 1 -3.15127 -4.34504 -1.06909 
398 1 -2.33517 -3.86297 -1.25985 
366 1 -0.718665 -3.53966 -0.966171 
1452 2 -1.15166 -4.63217 -1.50799 
388 1 -1.47224 -3.85635 -0.789166 
1748 2 -0.13365 -4.12286 -1.72571 
1812 2 0.671342 -3.71793 -1.68617 
1770 2 0.435041 -4.14363 -0.882283 
1973 2 1.36123 -3.54103 -1.25634 
1878 2 1.20697 -3.89473 -0.489328 
1637 2 2.07434 -3.69697 -0.478001 
1019 1 2.0708 -4.18682 -1.96636 
602 1 2.05993 -4.58104 -1.00212 
352 1 2.86117 -4.20155 -1.39699 
328 1 3.84775 -3.60348 -2.08269 
976 1 3.66481 -3.84685 -1.169 
311 1 4.65705 -3.32697 -1.72522 
1836 2 5.88439 -4.39325 -0.635238 
1201 2 5.60009 -4.10013 -1.68085 
321 1 4.5916 -3.63254 -0.849458 
917 1 -5.09657 -2.53352 -1.46467 
606 1 -5.44541 -3.03706 -0.840577 
1940 2 -5.7855 -1.99721 -0.583337 
1483 2 -3.48232 -3.0164 -1.75739 
99 1 -4.41396 -2.48197 -0.948144 
167 1 -3.47407 -2.27299 -0.589213 
177 1 -3.81571 -2.10821 -1.2074 
1851 2 -2.34773 -2.63237 -1.52638 
1908 2 -1.51887 -2.43174 -1.84716 
1573 2 -0.675462 -1.95656 -1.62625 
1537 2 -1.57517 -2.70276 -0.973032 
324 1 -1.46225 -3.51671 -1.71081 
1052 2 -0.922071 -2.47883 -0.508083 
573 1 0.265881 -2.48078 -2.27424 
246 1 -0.239238 -3.08191 -1.43865 
1635 2 -0.166834 -2.12658 -0.99112 
994 1 0.594639 -2.73363 -1.21335 
600 1 1.44401 -2.64265 -0.88658 
11 1 1.21019 -2.32236 -1.77639 
691 1 1.90089 -1.84381 -1.82983 
1942 2 2.09798 -3.22787 -1.35751 
1066 2 2.69995 -2.82968 -1.67566 
1457 2 2.86828 -3.17918 -0.866911 
215 1 2.01779 -2.03369 -0.981424 
1658 2 3.49611 -2.66379 -1.49499 
1738 2 4.26678 -2.49252 -1.27114 
1787 2 3.52892 -2.83991 -0.647364 
661 1 5.54329 -2.98868 -1.52883 
1156 2 5.05718 -2.22083 -1.07161 
1492 2 4.8055 -1.89131 -1.95277 
767 1 5.35146 -3.43954 -0.867793 
1279 2 -5.34211 -1.49106 -1.45552 
737 1 -5.68539 -0.717703 -0.840418 
1352 2 -3.532 -0.979893 -1.15393 
1432 2 -3.81973 -0.7242 -2.15056 
1434 2 -4.4055 -1.15018 -1.45906 
449 1 -2.90887 -1.76255 -1.21006 
963 1 -2.42303 -1.31337 -1.97313 
144 1 -2.03379 -1.70464 -0.758472 
243 1 -1.56326 -1.35646 -1.35531 
1517 2 0.00261652 -1.60845 -1.7606 
160 1 -0.781568 -0.831558 -1.39551 
1682 2 0.439503 -1.67471 -0.942752 
1568 2 1.84589 -0.754535 -1.69952 
1266 2 1.51324 -1.25344 -1.01428 
1916 2 2.6454 -0.830701 -1.28317 
640 1 2.78021 -1.74025 -1.64783 
962 1 3.6377 -1.25823 -1.70477 
983 1 4.46763 -1.10467 -1.55446 
626 1 3.68244 -1.57247 -0.931213 
846 1 2.86443 -2.01662 -0.709737 
1237 2 5.61818 -1.66602 -1.74752 
145 1 5.19315 -0.62967 -1.56295 
279 1 -4.84549 -0.259658 -1.31734 
278 1 -5.63649 -0.407062 -1.67339 
1776 2 -5.7471 0.324894 -0.756525 
654 1 -4.194 0.11944 -1.6895 
969 1 -4.29067 -0.280382 -0.739699 
88 1 -3.605 0.261544 -0.936159 
1826 2 -2.79788 -0.422972 -1.54656 
692 1 -2.9811 0.604138 -1.28007 
1589 2 -2.73504 -0.871373 -0.597375 
134 1 -2.60873 0.379475 -0.509143 
1643 2 -1.63711 0.0867329 -1.67738 
1972 2 -2.13051 -0.533796 -0.934969 
1436 2 -0.651838 0.274764 -1.15659 
1834 2 0.19638 0.653924 -1.56616 
601 1 0.505884 -0.404184 -1.10102 
749 1 -0.050358 -0.470641 -1.73813 
842 1 1.24528 -0.00826462 -1.47478 
95 1 1.86721 0.357293 -1.72442 
799 1 2.06728 -0.0686472 -0.662062 
430 1 2.595 0.419894 -1.35988 
1784 2 3.16844 -0.278631 -1.6482 
1564 2 4.20572 -0.15333 -1.23981 
1680 2 3.47986 -0.61734 -0.877818 
1045 2 5.00356 0.134455 -0.952477 
1803 2 4.91796 0.504273 -1.81482 
1679 2 5.71265 0.574449 -1.54374 
2030 2 -5.45539 1.00503 -1.89868 
1839 2 -5.13309 0.701451 -1.21961 
1000 1 -5.43508 1.86514 -1.36701 
1520 2 -4.31529 1.11062 -1.43754 
2021 2 -3.41986 1.49927 -1.29155 
259 1 -1.91843 0.926093 -1.08557 
1981 2 -2.59814 1.94665 -1.2302 
44 1 -0.980644 1.22391 -0.844532 
823 1 -0.71732 1.50792 -1.46898 
124 1 -0.77017 1.97744 -2.39609 
1860 2 1.07998 0.963847 -0.982917 
1149 2 0.763168 1.20096 -1.88622 
206 1 0.72313 2.20686 -1.41062 
747 1 -0.0797673 1.67067 -0.934967 
1386 2 1.73183 1.30752 -1.45179 
1994 2 2.6672 1.69114 -1.32596 
760 1 3.20629 0.930429 -1.72456 
1340 2 1.74695 1.03582 -0.457664 
1134 2 3.61615 1.96303 -1.08336 
194 1 3.69272 0.888327 -0.94279 
731 1 3.98168 1.20662 -1.78668 
702 1 5.39928 1.55279 -1.35781 
232 1 4.60192 1.22485 -1.04986 
751 1 -4.81888 2.39912 -1.89774 
1056 2 -4.81694 3.35352 -1.271 
446 1 -4.49143 2.04228 -0.763535 
1811 2 -5.46416 2.94958 -1.16153 
111 1 -4.07805 2.63082 -1.45634 
966 1 -3.42983 2.52002 -0.899066 
772 1 -2.89914 3.08827 -1.23294 
2045 2 -1.83542 2.25106 -0.988014 
1732 2 -1.1125 2.56803 -1.43944 
1616 2 -0.123096 2.8599 -1.00359 
34 1 1.46674 2.16204 -0.928127 
1913 2 0.828032 3.18913 -0.877039 
256 1 1.62239 2.63004 -1.74924 
2020 2 2.95969 2.14819 -2.11604 
945 1 2.58365 2.69803 -1.19901 
843 1 2.22827 2.31708 -0.541584 
1686 2 4.42032 2.50535 -1.68167 
795 1 3.31443 2.97602 -1.20064 
1439 2 5.83715 3.11771 -1.7898 
1330 2 5.27055 2.52306 -1.20142 
103 1 -5.6833 4.41433 -1.63355 
579 1 -4.46862 4.56934 -0.775701 
1992 2 -4.09892 3.66513 -1.28511 
1971 2 -3.39561 4.07214 -1.52684 
2033 2 -3.24946 4.38444 -2.15652 
221 1 -2.01687 3.36203 -1.51579 
1651 2 -3.24757 3.90529 -0.809587 
1814 2 -2.31369 4.38255 -1.66327 
1601 2 -1.26941 4.85473 -1.06732 
520 1 -1.23384 3.80814 -1.6357 
720 1 -1.35033 3.50268 -0.820155 
1211 2 -0.635221 4.84392 -0.531584 