ITEM: TIMESTEP
18300
ITEM: NUMBER OF ATOMS
2048
ITEM: BOX BOUNDS pp pp pp
-5.9496218893024100e+00 5.9496218893024100e+00
-5.9496218893024100e+00 5.9496218893024100e+00
-5.9496218893024100e+00 5.9496218893024100e+00
ITEM: ATOMS id type x y z 
14 1 -5.12062 -5.80595 -5.0731 
1734 2 -5.74299 -4.78902 -5.62018 
1849 2 -5.10548 -4.61055 -5.16512 
29 1 -5.31052 -5.59141 5.84217 
805 1 -3.52861 -5.10367 -5.2519 
554 1 -4.54171 -5.44271 -5.61776 
247 1 -3.02446 -4.62011 -5.82862 
453 1 -2.46363 -4.98922 -4.90124 
2029 2 -1.85415 -5.52607 5.8481 
1542 2 -1.14564 -5.14151 -5.67125 
1151 2 -1.25803 -5.64186 -4.9215 
5 1 -1.66267 -4.60314 -4.6053 
1035 2 -0.483485 -5.19473 -5.19083 
1429 2 0.512159 -4.59435 -5.39647 
495 1 0.349756 5.72895 -5.13623 
1260 2 1.18832 -4.66284 -4.93501 
648 1 0.914056 -5.61942 -5.45452 
575 1 1.76454 -5.61697 -5.0591 
64 1 2.21081 -5.22838 -5.63586 
442 1 3.22119 -4.97924 -5.25616 
180 1 4.41272 -4.79746 -4.89649 
1192 2 4.49653 -5.61901 -5.33243 
1875 2 3.36007 -5.8639 -5.70488 
1931 2 4.10465 -5.53213 5.91675 
1799 2 -5.78542 -5.09637 -4.72013 
1358 2 5.42546 -5.59353 -4.78517 
1307 2 5.50365 -5.15924 -5.54214 
1227 2 -4.87132 -4.25512 -5.8433 
251 1 -4.68783 -3.52949 -4.54977 
75 1 -4.96978 -3.18124 -5.32992 
1103 2 -4.09571 -3.98976 -5.84232 
1633 2 -4.3234 -4.40597 -4.94508 
1046 2 -3.49093 -3.74796 -5.39666 
1711 2 -2.51919 -3.642 -4.9056 
1630 2 -2.85447 -3.29989 5.96151 
91 1 -2.17843 -4.43175 -5.50323 
2009 2 -1.56339 -3.38614 -4.7301 
855 1 -1.29479 -4.17433 -5.30107 
416 1 0.479115 -3.89785 -4.44061 
202 1 -0.305869 -3.86098 -4.9852 
227 1 0.4808 -3.54504 -5.3505 
1709 2 1.11727 -4.28049 -5.87859 
1790 2 1.96367 -4.18315 -5.56112 
122 1 1.33647 -3.36788 -5.11637 
1678 2 2.85359 -3.86319 -5.47438 
1887 2 2.44566 -4.28736 -4.61994 
496 1 3.1099 -4.62032 5.61535 
1737 2 3.99117 -3.47433 -5.29782 
1592 2 3.51696 -3.95398 -4.81794 
242 1 3.93195 -4.58267 -5.52295 
223 1 5.21156 -4.26903 -5.24658 
511 1 5.69592 -3.70837 -5.34428 
1872 2 -5.30597 -2.16435 -5.39895 
1937 2 -5.57096 -2.52419 -4.68009 
1750 2 -5.90454 -2.21111 5.66288 
1475 2 -4.4795 -2.08662 -4.99283 
353 1 -4.17312 -2.84251 -5.60827 
218 1 -3.74305 -3.07609 -4.80645 
387 1 -2.82402 -2.01604 5.86695 
664 1 -2.91503 -2.66015 -5.03978 
196 1 -2.63876 -2.95676 -4.22936 
236 1 -2.17917 -2.20371 -5.14101 
1379 2 -1.29862 -2.88944 -5.69564 
1370 2 -0.826687 -3.10456 -4.3217 
1555 2 0.126723 -2.2976 -5.52676 
1763 2 -0.863742 -2.67908 -5.11198 
1645 2 0.779614 -2.33672 -4.88685 
1982 2 1.62153 -2.17354 -5.09157 
413 1 0.982834 -3.03297 -5.9216 
547 1 2.65959 -2.84939 -5.10297 
136 1 2.01352 -2.93559 -5.55341 
485 1 3.38512 -2.57036 -5.64967 
904 1 4.1182 -2.16478 -5.28027 
2032 2 5.86968 -2.63218 -5.50583 
1995 2 4.87278 -2.92397 -5.37041 
999 1 4.72029 -2.15068 -4.58396 
1129 2 4.71631 -3.57154 -4.71035 
740 1 -5.47414 -1.15816 -5.1133 
771 1 -4.67703 -0.543462 -5.52658 
1745 2 -3.67379 -1.72902 -5.10112 
833 1 -4.04699 -0.867665 -4.83215 
1097 2 -2.87826 -1.56608 -4.7109 
1271 2 -2.5415 -1.08227 -5.40607 
1478 2 -2.11353 -1.36477 -4.31221 
830 1 -1.38935 -1.76289 -5.0313 
1345 2 -1.80451 -0.715828 -5.11702 
1573 2 -1.34658 -0.937364 -4.40275 
622 1 -1.03581 -1.56004 -5.82907 
8 1 -0.250043 -1.32137 -5.58069 
1006 1 -0.588337 -1.80748 -4.76618 
1401 2 0.916795 -2.07956 -5.89006 
768 1 0.618434 -1.08441 -5.52422 
1190 2 1.79242 -1.57251 -5.73362 
788 1 1.50166 -0.652469 -5.4824 
1676 2 3.3308 -1.07996 -5.82484 
1083 2 2.53416 -2.06265 -4.52921 
1775 2 4.04665 -1.01238 -5.32366 
1363 2 2.5832 -1.66104 -5.36663 
308 1 5.7571 -1.21924 -5.75012 
2036 2 4.81967 -0.907941 -4.87432 
609 1 5.6622 -1.63804 -4.99034 
33 1 4.8908 -1.72 -5.39076 
1498 2 -5.54236 -0.0252219 -4.98679 
1615 2 -5.50242 -0.462078 -4.32818 
1494 2 -5.86586 0.11476 -5.78004 
505 1 -3.55457 -0.366795 -5.28443 
2028 2 -4.77571 0.45141 -5.17297 
1346 2 -3.97353 0.53905 -4.73444 
1830 2 -4.54789 -0.121351 -4.3114 
451 1 -2.62649 0.0275333 -5.2417 
386 1 -3.06764 -0.00464991 5.96293 
701 1 -3.05058 -0.288125 -4.61522 
1171 2 -1.0083 -0.552166 -5.38108 
827 1 -1.15975 0.471044 -5.03899 
374 1 -1.84048 0.388017 -5.61443 
1963 2 0.251098 -0.0929997 -5.06427 
1804 2 -0.294396 -0.136984 -5.83277 
1572 2 0.841215 0.328025 -5.58312 
1852 2 1.50817 0.394655 -4.91595 
1223 2 0.872678 -0.145367 -4.48925 
866 1 2.23796 -0.797934 -4.86359 
42 1 2.64622 -0.208849 -5.41653 
560 1 3.38216 0.157108 -5.72108 
60 1 3.59356 -0.128482 -4.91625 
960 1 4.38248 0.336933 -5.64274 
1623 2 5.35681 -0.373442 -5.37742 
469 1 5.11534 0.541886 -4.97042 
1332 2 4.73176 -0.5719 -5.89955 
656 1 -5.38227 1.15893 -4.74342 
752 1 -4.56752 1.65127 -5.34221 
915 1 -5.50204 1.39976 -5.62387 
190 1 -3.78958 1.87778 -4.99778 
1962 2 -3.6043 0.824765 -5.30228 
697 1 -4.09324 1.9037 5.78135 
1736 2 -2.8967 0.881658 -4.67505 
1343 2 -2.351 1.31692 -5.33024 
517 1 -0.558376 0.868463 -5.61081 
1298 2 -1.77229 1.70127 -5.95396 
1054 2 -1.02862 1.69647 -5.1499 
254 1 0.430319 1.26017 -5.53873 
594 1 -0.163822 0.699091 -4.69626 
842 1 1.61238 1.51932 -5.09309 
156 1 1.23679 1.76338 -5.83344 
1021 1 0.870437 1.22978 -4.7692 
1785 2 2.00202 0.768153 -5.57125 
1910 2 3.28351 1.06748 -5.50063 
1470 2 4.01815 1.30891 -5.35822 
302 1 5.78462 0.980509 -5.35625 
1204 2 4.95287 1.82007 -5.7512 
1068 2 4.86128 1.42981 -4.72583 
1497 2 5.44737 1.94842 -5.07761 
1403 2 -5.0784 2.23676 -4.67475 
1377 2 -4.80646 2.62918 -5.51653 
1717 2 -5.66741 2.24578 -5.44094 
1142 2 -4.08595 2.81565 -4.92915 
982 1 -2.98999 1.9493 -4.808 
1625 2 -2.46511 3.44128 -5.16855 
820 1 -3.32058 2.30412 -5.80845 
494 1 -2.32945 2.44072 -5.27702 
852 1 -1.46548 2.89974 -5.5214 
593 1 -0.63769 2.9512 -5.20818 
310 1 -1.3611 2.47778 -4.78807 
1884 2 0.0964975 2.06261 -4.94849 
1945 2 -0.480737 2.05314 -5.58676 
1506 2 0.714338 2.45518 -5.31011 
1769 2 1.43912 2.54452 -4.8841 
1130 2 1.98766 3.00587 -5.31115 
1707 2 1.3455 2.88335 5.9225 
380 1 2.25515 1.91805 -5.54287 
895 1 2.97023 1.91119 -5.15169 
796 1 3.59959 2.39351 -5.60654 
574 1 4.03119 2.2482 -4.70799 
869 1 4.45994 2.69632 -5.43341 
396 1 5.17603 2.8287 -4.90727 
882 1 5.80997 3.30864 -5.27587 
762 1 5.21274 3.161 -5.87576 
923 1 -5.15314 3.5471 -5.24552 
1088 2 -5.44331 4.56364 -4.8126 
178 1 -5.84782 3.7287 5.82333 
45 1 -4.35869 3.95755 -5.39334 
92 1 -3.57583 4.26706 -5.01185 
676 1 -4.54702 3.62242 -4.43638 
1175 2 -3.24687 3.37909 -5.55956 
1869 2 -1.48343 3.99476 -5.3393 
632 1 -2.6037 4.41341 -4.83293 
1096 2 -1.48891 4.18064 5.63887 
1824 2 -0.822293 3.88906 -4.61248 
1480 2 -0.108001 4.39658 -4.91238 
1336 2 0.576073 4.50147 -4.19981 
56 1 0.314858 3.3751 -4.86845 
815 1 -0.15195 3.35117 -5.8413 
709 1 1.4508 3.80912 -4.89603 
716 1 0.928689 3.79993 -5.57812 
1628 2 2.96971 3.09491 -4.91556 
884 1 2.05441 4.17706 -5.62058 
1979 2 2.5419 3.17889 -5.8453 
256 1 2.53928 4.03133 -4.8605 
1618 2 4.1625 3.59188 -5.05883 
1779 2 4.77766 4.04438 -5.45801 
1342 2 3.4327 3.53583 -5.68332 
775 1 3.94578 4.53623 -4.66416 
1349 2 5.565 4.3374 -5.11801 
435 1 -5.76349 5.78204 -5.61952 
1417 2 -5.69479 4.65124 -5.51376 
1670 2 -4.81972 5.06822 -5.4766 
1510 2 -3.8887 5.28066 -5.02904 
1127 2 -4.2633 5.55305 -5.78362 
687 1 -2.75819 4.82718 -5.59681 
1551 2 -2.72686 5.53533 -4.70427 
1365 2 -3.33224 5.82478 -5.41608 
1526 2 -2.19002 5.83239 -5.34663 
871 1 -1.70553 5.09058 -5.76768 
638 1 -0.918482 5.34432 -5.24649 
221 1 -1.76671 4.79424 -4.82766 
428 1 -0.284163 5.44774 -4.53233 
528 1 -0.353144 5.73841 -5.76383 
2042 2 -0.0779433 4.86297 5.84697 
1378 2 0.533141 4.65294 -5.37579 
1145 2 2.01749 5.33842 -5.36381 
1093 2 1.16505 5.12193 -5.59546 
501 1 3.19112 4.50853 -5.12736 
1955 2 2.56549 5.64675 -5.79822 
1691 2 2.87005 5.5105 -4.99725 
1593 2 2.28545 5.01643 -4.4973 
407 1 4.53335 5.03244 -5.13746 
18 1 3.86931 4.92044 -5.61783 
1764 2 3.8336 5.78374 -4.88822 
699 1 5.43489 5.41607 -5.37196 
473 1 4.80776 5.45017 5.92258 
1773 2 -5.2128 -5.158 -4.07335 
1418 2 -4.47864 -4.92892 -4.19666 
346 1 -4.23108 -5.80614 -4.60252 
2016 2 -4.2118 -5.09134 -3.30751 
508 1 -3.26223 -5.43451 -4.50376 
274 1 -2.23759 -5.18897 -4.09044 
1008 1 -2.77937 -5.63831 -3.48279 
326 1 -1.18846 -4.79812 -3.75541 
1291 2 0.398202 -5.06765 -4.69135 
1338 2 0.172216 -5.49251 -3.5507 
1029 2 -0.309318 -5.46589 -4.40936 
459 1 -0.478502 -4.70879 -3.33402 
673 1 1.80876 5.91988 -4.26733 
1486 2 1.71409 -4.72279 -4.25514 
1334 2 0.973877 -5.16387 -4.07698 
425 1 2.56832 -5.44108 -4.60637 
955 1 2.76611 -5.56288 -3.82479 
131 1 3.5291 -5.16535 -4.50821 
1559 2 4.58466 5.71784 -4.34169 
667 1 4.27272 -5.12705 -3.99948 
809 1 5.49869 -4.75012 -3.44165 
1272 2 5.88488 -5.56174 -3.96736 
373 1 -5.59399 -3.68234 -4.75933 
991 1 -5.03404 -4.04519 -3.97386 
878 1 -5.80886 -4.29189 -3.79734 
1663 2 -3.72767 -4.62556 -4.27027 
273 1 -4.10092 -3.7018 -4.04537 
504 1 -3.55723 -3.81196 -3.25908 
1602 2 -2.07904 -3.78844 -4.162 
1548 2 -3.13491 -4.16258 -4.67474 
1197 2 -2.66959 -4.37525 -3.81655 
1231 2 -1.11789 -3.61332 -3.79005 
1477 2 -0.343502 -3.35776 -3.32596 
902 1 -0.89806 -4.51096 -4.48854 
1079 2 -1.71159 -3.92482 -3.33632 
467 1 -0.129347 -4.22746 -3.97405 
819 1 1.20248 -3.63533 -4.22589 
782 1 0.677201 -4.21738 -3.68286 
938 1 1.68044 -3.81529 -3.4947 
1082 2 2.40673 -4.47846 -3.72774 
1528 2 3.20923 -4.26484 -4.06327 
1001 1 1.91618 -3.41696 -4.45815 
1232 2 4.12893 -4.02802 -4.23757 
339 1 5.00823 -4.77156 -4.28867 
1836 2 4.67833 -3.74757 -3.50422 
1902 2 5.29389 -3.4376 -4.00701 
280 1 5.60036 -4.27731 -4.55388 
2010 2 5.97832 -3.494 -3.20984 
1664 2 -4.78537 -2.58873 -4.23646 
1657 2 -5.81791 -2.99938 -3.94377 
1588 2 -3.85449 -2.22223 -4.2899 
1243 2 -3.04555 -2.08465 -3.89044 
1924 2 -4.27212 -2.81862 -3.3052 
524 1 -3.34718 -3.1851 -3.98176 
313 1 -2.07442 -2.9108 -3.52388 
1867 2 -2.63267 -2.24526 -2.94076 
35 1 -1.82418 -2.41492 -4.4147 
657 1 -1.10174 -2.20271 -3.99854 
599 1 -1.24335 -2.68062 -3.30205 
1581 2 -0.0235644 -3.02927 -4.06359 
1848 2 -0.0279532 -2.65493 -4.80289 
1991 2 0.767983 -2.71727 -4.08315 
1263 2 1.63024 -2.39652 -4.27375 
639 1 2.73437 -3.11175 -4.29906 
1533 2 2.28153 -2.27885 -3.66556 
403 1 3.49663 -2.61467 -4.87456 
277 1 4.20317 -2.7915 -4.444 
914 1 3.4318 -2.89964 -3.9384 
1465 2 5.50653 -2.90552 -4.82289 
602 1 4.50889 -2.64507 -3.66433 
562 1 5.45869 -2.13504 -4.21042 
968 1 -5.84165 -2.11441 -3.50976 
784 1 -5.58624 -1.62118 -4.27495 
66 1 -4.93457 -1.68176 -3.56282 
2001 2 -5.85491 -0.8758 -3.61637 
205 1 -4.68219 -1.3175 -4.48138 
161 1 -4.1584 -1.44172 -3.75687 
717 1 -3.43079 -0.978886 -4.10916 
1908 2 -2.31391 -1.83789 -3.68855 
419 1 -2.81915 -0.893513 -3.28409 
1870 2 -0.617105 -1.06334 -3.9898 
1537 2 -1.30543 -1.35511 -3.58965 
421 1 -0.0245161 -1.91931 -4.0006 
1975 2 -0.505969 -0.539759 -4.76433 
674 1 0.37035 -1.349 -4.63457 
427 1 0.882677 -1.56901 -4.1051 
581 1 1.41146 -1.10193 -4.8975 
640 1 1.79657 -1.21402 -4.19226 
116 1 2.626 -0.943756 -3.81729 
1259 2 3.22461 -1.53898 -4.93549 
1030 2 3.29397 -1.83091 -4.12657 
2048 2 4.21958 -1.22373 -4.3817 
1163 2 5.55243 -0.699695 -4.52242 
1634 2 -4.97427 -0.4384 -3.64002 
818 1 -5.4278 0.453822 -3.49792 
32 1 5.92445 0.566219 -4.28839 
1111 2 -3.88636 -0.210181 -3.67258 
1754 2 -4.31132 -0.55853 -3.06564 
1184 2 -3.43684 0.492798 -4.01535 
214 1 -2.40065 -0.493711 -3.89759 
749 1 -1.9528 -0.0144695 -4.4491 
615 1 -1.40728 -0.184086 -3.58185 
789 1 -0.961318 0.212236 -4.11701 
408 1 0.0663477 0.344918 -3.70372 
1644 2 0.206335 -0.616381 -4.08342 
499 1 -0.602223 -0.0900423 -3.31487 
1832 2 0.786888 -0.67395 -3.52749 
1673 2 1.61257 -0.293981 -3.66485 
90 1 1.26532 0.807108 -3.61336 
1180 2 2.0441 0.0865477 -4.36677 
1777 2 2.84666 0.383625 -4.03447 
1412 2 2.58299 0.774339 -4.8464 
758 1 3.15378 -0.597279 -4.34688 
715 1 4.05339 -0.348546 -3.92813 
1953 2 3.96299 0.554573 -3.47786 
872 1 4.4382 0.0935531 -4.66106 
109 1 5.29716 0.232896 -4.01158 
1810 2 5.93032 1.77496 -4.33888 
278 1 -4.95435 0.869837 -3.94658 
1728 2 -5.01574 2.04206 -3.78782 
1877 2 -5.70989 1.48605 -3.43425 
338 1 -4.49751 1.36227 -4.53583 
230 1 -4.16502 0.938014 -3.60159 
900 1 -4.35839 0.632781 -3.00114 
689 1 -3.57077 1.52114 -4.23432 
903 1 -2.7464 1.76465 -3.88136 
1550 2 -2.37122 0.747032 -3.88027 
1256 2 -1.74898 1.09449 -4.50488 
1050 2 -1.12633 1.34515 -3.81748 
1436 2 -1.70626 0.768253 -3.31883 
80 1 0.634369 0.762561 -4.10362 
1364 2 -0.431685 1.69116 -4.41078 
1683 2 0.335009 1.72315 -3.87113 
1149 2 -0.350665 1.28493 -3.33213 
50 1 1.70497 1.24896 -4.18609 
551 1 2.34333 1.62498 -4.53838 
760 1 2.92135 1.53313 -3.77245 
171 1 2.11873 1.0795 -3.572 
1011 1 3.32406 1.94269 -4.41265 
894 1 3.98743 1.94613 -3.62854 
1172 2 3.62465 0.87331 -4.62673 
1861 2 4.31552 1.0388 -4.09726 
731 1 3.57096 1.42369 -3.11873 
1132 2 5.30703 1.28146 -3.90134 
188 1 -5.44689 3.20292 -4.54151 
7 1 -5.75866 2.57924 -3.31802 
69 1 -5.08358 3.13232 -3.64637 
1482 2 -4.33369 2.44101 -4.12241 
1512 2 -4.09345 2.04015 -3.31367 
1485 2 -3.17822 2.96069 -4.58865 
1794 2 -2.42172 3.02353 -4.14376 
1415 2 -3.41883 2.49011 -3.71561 
1015 1 -2.18123 2.04415 -4.39662 
686 1 -1.63238 2.26072 -3.6204 
208 1 -0.879412 2.4866 -4.00481 
1607 2 -1.76104 3.28934 -3.51353 
1653 2 0.869 2.15087 -4.26928 
561 1 -0.337661 2.96222 -4.36681 
843 1 0.467745 2.9506 -3.84937 
301 1 -0.202625 2.51595 -3.44805 
1187 2 1.32938 1.94435 -3.47716 
1999 2 1.86396 2.40347 -3.95645 
2020 2 2.27907 2.80306 -4.52102 
2039 2 3.04763 2.94416 -3.88649 
1214 2 2.5325 2.48293 -3.37412 
1274 2 3.65347 3.24948 -4.47406 
726 1 4.6768 2.41924 -4.26633 
204 1 5.80172 2.82029 -4.17286 
631 1 5.10077 2.29781 -3.5414 
1977 2 4.64656 3.1889 -3.06929 
1278 2 -5.11488 4.45004 -3.9767 
1575 2 -4.29605 4.4433 -3.53203 
446 1 -3.68517 3.76396 -4.19224 
755 1 -2.85747 3.97963 -4.1889 
250 1 -2.44903 3.98309 -3.47589 
577 1 -1.95846 4.46292 -4.14534 
1268 2 -1.73613 3.50595 -4.57241 
1926 2 -0.999687 3.51108 -3.76936 
17 1 -1.37605 4.36532 -3.47784 
1161 2 0.0279718 3.8952 -3.70635 
1372 2 1.04696 4.12406 -3.37318 
1304 2 -0.583061 3.39441 -3.11081 
1354 2 1.29508 4.92769 -4.71329 
885 1 0.997009 3.49691 -4.26345 
1668 2 1.69339 4.12612 -2.64023 
478 1 1.72742 3.30068 -3.48682 
76 1 2.17413 3.75822 -4.19546 
34 1 2.62857 3.95031 -3.51049 
1522 2 4.49167 3.42792 -4.02466 
653 1 3.16207 4.11243 -4.18511 
835 1 3.93115 4.21252 -3.63643 
262 1 4.56098 4.63196 -4.14315 
1073 2 5.89408 4.10542 -4.19587 
1562 2 5.11682 3.81856 -4.60902 
1439 2 5.34191 3.66358 -3.64668 
412 1 -4.97592 5.68751 -4.27652 
662 1 -4.97947 5.29726 -3.3357 
342 1 -4.26442 5.87879 -3.68795 
1191 2 -4.01878 4.98003 -4.09827 
255 1 -3.41571 -5.84746 -3.88661 
1048 2 -4.59653 4.74774 -4.75208 
1038 2 -3.18685 5.09215 -4.30874 
1329 2 -1.91122 5.79318 -4.34368 
1757 2 -2.39608 5.26915 -3.64209 
340 1 -0.961084 4.90501 -4.30848 
1571 2 -1.12222 -5.75215 -4.108 
87 1 0.27877 5.51155 -3.88455 
612 1 0.497922 5.01571 -2.9575 
836 1 -0.44771 4.80634 -3.495 
350 1 0.940682 5.75341 -4.47584 
2040 2 1.71363 4.68637 -3.71343 
237 1 1.15638 5.47287 -3.45751 
959 1 2.26873 -5.96809 -3.29308 
1033 2 2.73827 5.10717 -3.69276 
1499 2 3.38546 5.40565 -4.18565 
1612 2 3.95958 5.49295 -3.67182 
370 1 5.35373 4.77793 -3.56491 
1425 2 4.99928 -5.92539 -3.68169 
946 1 5.31767 5.01774 -4.42045 
825 1 -5.83878 5.3883 -4.45642 
443 1 -5.77761 5.13662 -3.62561 
1534 2 -4.97314 -5.35269 -3.25254 
1604 2 -5.66216 -5.79227 -3.03367 
724 1 -5.08004 -4.73015 -2.05669 
1122 2 -4.72233 -5.71745 -2.39974 
1261 2 -3.41191 -4.77866 -3.53956 
1394 2 -3.8395 -5.29927 -2.56329 
1285 2 -3.19265 -5.09048 -2.04777 
1783 2 -3.07134 -4.78053 -2.84111 
295 1 -2.00348 -5.36519 -3.07748 
260 1 -1.13421 -5.18949 -2.94558 
934 1 -1.13873 -5.37192 -2.22608 
1503 2 -0.698275 5.86457 -3.37281 
954 1 -1.96947 -5.79994 -2.24923 
1818 2 -0.179663 -5.93407 -2.74039 
147 1 0.187223 -4.55212 -2.76144 
678 1 -0.390756 -4.98925 -2.21481 
1319 2 1.88797 -4.95195 -3.33696 
1928 2 1.1901 -5.35103 -3.22988 
1984 2 1.79358 -5.27045 -2.43833 
1081 2 0.822922 -5.57782 -2.52599 
107 1 0.711785 -4.56429 -2.09386 
2019 2 2.61977 -4.99459 -2.07556 
1563 2 2.84019 -4.83236 -2.8854 
847 1 3.56828 -5.3517 -3.46966 
1765 2 3.6973 -4.67393 -2.368 
586 1 4.004 -5.57545 -2.90729 
153 1 4.71361 -4.99601 -3.25166 
284 1 -5.91451 -4.9501 -2.5772 
542 1 5.11697 -5.19497 -2.6031 
798 1 -5.2565 -4.33412 -2.92221 
483 1 -4.50152 -4.01562 -3.305 
666 1 -4.43131 -4.44764 -2.43634 
246 1 -3.62976 -3.98207 -2.54708 
1807 2 -2.23118 -4.43513 -2.91981 
844 1 -2.78105 -3.69281 -2.55506 
1452 2 -0.956803 -3.96717 -2.77893 
1402 2 -1.50474 -4.36472 -2.16525 
986 1 -2.10445 -3.60279 -1.80787 
1280 2 -0.612586 -4.12896 -1.86874 
1457 2 0.684281 -3.09397 -3.41062 
1613 2 0.00498187 -3.61533 -2.51115 
249 1 1.64554 -4.25228 -2.29949 
661 1 1.0475 -4.17354 -2.94049 
1896 2 0.807604 -3.2944 -2.49438 
1894 2 1.40521 -3.54315 -1.49119 
20 1 2.40508 -3.43698 -3.59203 
321 1 3.16706 -3.5094 -3.28908 
550 1 2.18682 -3.8304 -2.8742 
385 1 3.06771 -3.69642 -2.5286 
1198 2 3.78328 -4.37465 -3.30653 
1844 2 4.44573 -4.17905 -2.66707 
137 1 3.86578 -3.316 -2.35676 
1655 2 5.19321 -3.77691 -2.98459 
1240 2 -5.84986 -3.85858 -2.26168 
1817 2 -5.25485 -3.31643 -2.57211 
592 1 -5.17133 -2.22133 -2.73144 
734 1 -5.53388 -2.40945 -2.00752 
1871 2 -5.07683 -2.96907 -3.46108 
291 1 -4.56973 -2.22577 -1.94885 
2007 2 -3.04279 -2.67383 -2.28716 
1545 2 -3.91712 -2.95455 -2.4426 
753 1 -2.75579 -3.369 -3.2973 
677 1 -2.10633 -3.18097 -2.73588 
1911 2 -3.46827 -2.50624 -3.13512 
1052 2 -2.19246 -2.45188 -2.01416 
388 1 -1.27575 -3.01142 -2.51158 
1781 2 -1.43635 -1.95605 -2.10697 
597 1 -0.554274 -2.27242 -3.24161 
11 1 -0.594391 -2.66788 -2.27042 
287 1 0.422194 -1.90257 -3.29812 
566 1 0.102509 -2.43371 -2.59126 
1580 2 1.48694 -2.90673 -3.17968 
1923 2 1.61706 -3.13725 -2.32877 
1738 2 2.38838 -2.67596 -2.8015 
1326 2 3.02941 -2.21988 -3.42223 
1066 2 3.08611 -2.43623 -2.50791 
1973 2 3.98792 -2.07023 -2.8709 
754 1 3.99453 -3.15902 -3.26872 
140 1 5.17936 -2.53987 -3.37439 
471 1 5.6902 -2.63821 -2.63438 
296 1 4.7794 -2.9649 -2.68305 
1826 2 -5.30815 -1.00449 -2.69919 
1299 2 -5.72621 -1.33954 -2.09544 
636 1 -4.34488 -1.79388 -3.02788 
767 1 -3.44679 -1.42668 -3.34831 
2035 2 -4.29089 -0.83238 -2.32101 
848 1 -3.52498 -1.61803 -2.43113 
704 1 -2.60195 -1.29184 -2.622 
117 1 -2.85743 -1.65437 -1.85911 
1296 2 -1.03024 -1.63151 -2.81601 
37 1 -1.76941 -0.937398 -2.18731 
625 1 -0.64965 -0.527588 -2.06234 
1682 2 -1.85631 -1.93372 -2.84374 
1635 2 -0.0356113 -1.24108 -2.41492 
1517 2 0.7946 -0.929345 -2.67341 
1456 2 -0.0672022 -0.97192 -3.26806 
998 1 1.35079 -1.91244 -3.25051 
705 1 2.07866 -1.46698 -3.07563 
2027 2 1.71315 -1.00236 -1.92506 
106 1 1.85781 -2.03875 -2.23438 
700 1 2.94304 -1.35462 -2.84447 
1698 2 4.73031 -1.45414 -3.0808 
299 1 3.46363 -0.982578 -3.40387 
125 1 3.58353 -1.02788 -2.44267 
846 1 4.33342 -0.588269 -2.81348 
1350 2 4.06758 -1.70999 -3.6372 
1110 2 5.26846 -1.33616 -3.86604 
1641 2 5.57606 -1.29373 -2.89076 
692 1 -4.97516 0.223666 -2.70216 
654 1 -5.627 -0.0694317 -2.29514 
297 1 5.89954 -0.000179673 -3.08382 
1876 2 -3.39644 -0.268035 -2.90695 
824 1 -4.34009 0.215397 -2.11813 
1589 2 -3.49001 -0.558347 -2.10179 
1643 2 -3.01201 0.268915 -3.34447 
1206 2 -2.59728 -0.163297 -2.34127 
1834 2 -2.22822 0.241625 -2.95376 
234 1 -1.9346 -0.677724 -3.15971 
898 1 -1.14564 -0.606333 -2.86031 
1761 2 -1.65849 0.274794 -2.35038 
776 1 0.63244 0.426064 -3.06338 
447 1 -0.0709953 -0.119366 -2.58429 
963 1 1.13944 0.119028 -2.3354 
1568 2 1.50163 -0.586976 -2.93603 
874 1 1.8615 0.489571 -2.76166 
1502 2 2.42053 -0.18556 -3.31987 
1696 2 3.28715 0.109845 -3.11551 
1314 2 2.32233 -0.590249 -2.40389 
2008 2 3.13996 -0.158088 -2.21963 
1320 2 4.16993 0.350132 -2.6016 
334 1 4.85412 -0.175885 -3.45001 
241 1 5.23084 -0.285994 -2.65584 
1858 2 5.02972 0.536381 -2.18561 
1986 2 -5.54941 1.17828 -2.65769 
1720 2 -4.80912 1.65389 -2.88005 
811 1 -5.60184 2.2246 -2.22147 
1282 2 -3.96633 1.61526 -2.2487 
613 1 -3.69273 0.69789 -2.52207 
1724 2 -4.79665 1.25385 -2.05711 
94 1 -3.15278 0.567254 -1.8757 
164 1 -3.39279 1.22564 -3.18113 
259 1 -2.61649 1.10901 -2.48812 
489 1 -2.24959 1.72374 -3.19761 
1104 2 -1.07628 0.828434 -2.8132 
189 1 -1.46283 1.72359 -2.61792 
1310 2 -0.0245915 1.0386 -2.59833 
2022 2 -0.657384 0.651039 -1.97291 
1893 2 0.670939 1.54854 -3.08925 
1340 2 2.16768 1.87656 -2.89259 
1386 2 1.38877 1.41009 -2.48768 
1297 2 0.75267 1.01654 -1.99174 
464 1 2.31671 0.550692 -2.01312 
232 1 2.73771 0.945037 -2.77503 
110 1 3.42408 1.12094 -2.17176 
1461 2 2.69468 1.98511 -2.26466 
944 1 4.19623 1.44874 -2.41067 
621 1 4.65292 1.80334 -2.99834 
1654 2 4.8617 0.85489 -3.16352 
702 1 5.04283 1.91209 -2.14279 
1508 2 5.88316 0.898656 -1.97318 
1803 2 5.44335 1.06047 -2.83362 
926 1 -4.81251 2.7235 -2.80841 
369 1 -4.24509 3.29534 -3.44696 
516 1 -4.30851 2.66763 -2.10748 
276 1 -3.73138 3.11803 -2.61354 
1938 2 -3.37503 1.97418 -2.70517 
323 1 -3.21797 3.0184 -1.93808 
1476 2 -2.56628 2.77344 -3.11577 
1839 2 -3.05016 2.00273 -1.94226 
719 1 -0.866265 2.19435 -2.9971 
1959 2 -2.32367 2.48769 -2.42955 
1689 2 -1.54048 2.96152 -2.79116 
134 1 0.499023 2.57648 -2.83719 
585 1 -0.241535 2.02988 -2.42254 
240 1 1.13222 2.86904 -3.1848 
937 1 1.57017 2.75458 -2.59081 
945 1 0.909572 2.30108 -2.0572 
394 1 2.48385 3.35567 -2.6623 
1994 2 3.14803 2.44347 -2.80499 
896 1 2.1923 2.80884 -1.89839 
1105 2 3.76309 2.98679 -3.4343 
1686 2 3.73702 2.3692 -2.01554 
1825 2 4.18216 2.69666 -2.6213 
181 1 3.66779 3.54565 -2.14036 
381 1 5.59961 2.06674 -2.73928 
1333 2 5.6956 3.34317 -2.71269 
1026 2 4.96861 3.01587 -2.1035 
1636 2 -5.68526 3.9438 -3.3755 
1072 2 -5.40289 3.46831 -2.51656 
1527 2 -4.92262 4.07956 -2.97939 
1413 2 -3.58944 4.49436 -2.92593 
1419 2 -4.26846 3.94909 -2.35395 
989 1 -3.30692 3.53778 -3.27822 
1275 2 -3.18731 4.46152 -2.12012 
26 1 -2.79748 3.60252 -2.56367 
772 1 -1.84855 3.98133 -2.59066 
568 1 -1.15884 3.92828 -1.78048 
361 1 -1.03132 4.21031 -2.58663 
1616 2 0.0934245 3.24993 -2.16029 
564 1 -0.26362 4.315 -1.8521 
1183 2 0.447636 3.68856 -2.97059 
1071 2 1.0047 3.74357 -2.33776 
1042 2 2.22275 4.71444 -3.04401 
448 1 2.9351 3.20866 -1.78239 
1854 2 2.90964 4.62627 -2.45061 
1428 2 2.27924 4.20007 -2.00478 
552 1 3.30378 3.76675 -2.91344 
432 1 4.14964 4.11993 -2.71168 
166 1 4.78671 4.45943 -3.09541 
355 1 5.19887 4.24072 -2.30195 
993 1 -5.13989 4.8648 -2.53335 
2000 2 -5.46509 5.82086 -2.09687 
589 1 -4.31063 5.30848 -2.70556 
119 1 -3.53786 5.61315 -2.90673 
1353 2 -3.29114 4.694 -3.58628 
1335 2 -2.55016 4.90813 -2.81396 
1014 1 -2.76043 -5.97365 -2.74707 
1236 2 -1.61424 5.58028 -3.41336 
1543 2 -1.52733 5.10745 -2.72534 
123 1 -0.278044 4.66816 -2.64116 
1915 2 0.442243 5.86165 -2.01746 
1814 2 -0.89054 5.55889 -2.38496 
82 1 1.17452 5.24288 -2.60134 
736 1 0.603748 4.68995 -1.92767 
652 1 1.65452 4.97923 -1.77447 
41 1 2.03527 5.46643 -2.50922 
487 1 2.97726 -5.99709 -2.85069 
461 1 2.82463 5.52261 -1.93147 
490 1 2.3164 5.09246 -1.229 
1714 2 4.56312 5.47804 -3.12003 
1126 2 3.42935 4.96256 -3.12309 
1318 2 4.6251 5.2129 -2.30436 
1090 2 3.87328 4.90992 -2.19047 
1178 2 5.57798 5.50458 -2.12107 
918 1 5.84236 4.65191 -2.80382 
1411 2 5.44979 5.70516 -2.82663 
65 1 -5.08233 -5.13286 -1.08199 
802 1 -5.6976 -5.53914 -0.839003 
1312 2 -3.81315 -5.63069 -1.69281 
890 1 -3.60926 -4.55826 -0.78967 
21 1 -4.35317 -4.70901 -1.33023 
1404 2 -3.72746 -5.83564 -0.899074 
1106 2 -2.89936 -5.29959 -1.21902 
1454 2 -2.20113 -5.31314 -0.640008 
1047 2 -2.40982 -4.78665 -2.09291 
337 1 -0.679942 -5.62337 -1.19723 
1209 2 -1.76807 -4.79621 -1.30362 
1535 2 -1.0193 -4.53445 -1.14057 
531 1 -0.973833 5.71534 -0.635595 
85 1 0.239708 -5.09343 -1.45117 
328 1 1.36186 -4.82147 -1.28126 
245 1 0.820272 -5.38545 -0.479344 
100 1 2.21739 -4.46373 -1.31842 
1199 2 1.52634 -5.84794 -1.83812 
1828 2 2.2689 -5.57538 -1.53255 
569 1 2.58018 -4.70697 -0.519255 
1189 2 3.16023 -5.46507 -0.801263 
1530 2 4.37988 -4.68759 -1.66861 
2004 2 3.35988 -5.1527 -1.5711 
2017 2 4.11407 -5.15385 -0.954127 
1013 1 4.50032 -5.47881 -2.17157 
864 1 -5.80548 -5.19594 -1.74458 
452 1 5.30834 -5.52009 -1.5853 
1471 2 4.9654 -4.91528 -0.795788 
1201 2 -4.4695 -3.36582 -2.01444 
1217 2 -4.94979 -3.97463 -1.07077 
1387 2 -5.19812 -3.77992 -1.78256 
2002 2 -5.70269 -4.30442 -0.629189 
411 1 -3.67088 -4.22346 -1.64534 
1948 2 -4.19584 -3.57711 -1.17884 
816 1 -2.88471 -3.98039 -1.6536 
441 1 -2.79215 -4.33316 -0.834679 
71 1 -2.02249 -3.91126 -0.963078 
324 1 -1.27113 -3.40825 -1.66864 
634 1 -1.09502 -3.5942 -0.87363 
526 1 -0.347449 -3.33292 -0.551464 
1878 2 -0.024277 -4.20787 -1.07105 
1246 2 0.370825 -4.47083 -0.296452 
1753 2 0.477441 -3.80211 -1.62299 
1985 2 2.08313 -3.53815 -0.90137 
1942 2 0.87438 -3.96029 -0.849597 
1019 1 2.67052 -4.00264 -1.74967 
286 1 3.30864 -4.23984 -1.03709 
928 1 4.2588 -3.92123 -1.06796 
522 1 3.65201 -3.81049 -1.72439 
1521 2 5.28766 -4.2597 -2.0331 
1767 2 5.72189 -4.16053 -1.33298 
275 1 -5.9698 -3.1371 -1.30207 
285 1 -5.26549 -2.74879 -1.34826 
58 1 -4.09015 -2.44892 -1.00198 
1442 2 -3.61445 -3.06544 -1.6406 
1400 2 -2.39386 -2.842 -1.25369 
1289 2 -1.61269 -2.4372 -1.26174 
1449 2 -3.15506 -3.11517 -0.979312 
1505 2 -0.7899 -2.17774 -1.07925 
1069 2 -1.58207 -2.92207 -0.461101 
573 1 -0.520832 -2.97579 -1.44313 
211 1 0.317225 -2.76941 -1.50172 
1808 2 -0.170009 -1.83044 -0.971748 
377 1 0.887789 -2.16688 -2.41081 
347 1 0.517603 -2.92258 -0.615514 
215 1 1.16498 -2.39391 -1.49626 
1352 2 3.83828 -2.88735 -0.822997 
1947 2 2.44463 -3.07495 -1.74738 
199 1 2.06492 -2.1728 -1.43854 
1123 2 3.25097 -2.83332 -1.53054 
1708 2 3.87657 -2.42586 -1.96572 
1787 2 4.94843 -2.11803 -1.49679 
1492 2 4.42216 -2.51999 -1.19088 
1279 2 5.71664 -1.86504 -1.46396 
213 1 5.4362 -3.031 -2.02416 
311 1 4.53824 -3.49163 -1.87282 
1792 2 -4.81118 -1.20441 -1.88994 
1940 2 -5.35896 -1.44408 -1.23183 
1972 2 -3.97608 -1.04749 -1.41175 
917 1 -3.69987 -2.00529 -1.66249 
1025 2 -4.65004 -1.45447 -0.855939 
1128 2 -3.35587 -0.925328 -0.822144 
548 1 -2.21506 -1.43134 -1.56297 
948 1 -3.0469 -1.96854 -0.969246 
630 1 -1.14293 -0.979046 -1.61409 
59 1 -1.64725 -1.38932 -1.06263 
468 1 -0.896352 -1.08208 -0.722859 
1086 2 -0.541321 -1.61495 -1.94749 
1819 2 0.261819 -1.54675 -1.58358 
799 1 -0.156381 -0.560541 -1.26715 
1916 2 0.900524 -1.23409 -1.88124 
2046 2 1.68068 -1.30268 -1.13901 
1057 2 0.822969 -1.65079 -0.771479 
1360 2 2.22546 -1.28985 -0.416815 
691 1 2.81124 -1.56339 -1.93483 
962 1 2.7809 -1.95838 -0.979825 
867 1 4.37657 -0.959432 -1.88863 
626 1 3.69468 -1.40076 -1.67569 
1946 2 4.49648 -1.96709 -2.20891 
1167 2 5.26286 -1.7763 -2.25453 
198 1 4.64888 -1.2073 -1.09927 
279 1 5.2066 -0.724553 -1.92546 
958 1 -5.45762 -0.657444 -0.633724 
518 1 -5.8558 -0.468546 -1.45518 
876 1 -4.97061 -0.212586 -1.75208 
912 1 -3.78013 0.124335 -1.46886 
472 1 -4.4713 -0.220128 -1.0493 
921 1 -2.93573 0.392265 -1.00057 
1432 2 -2.98423 -0.62711 -1.41712 
1098 2 -2.33381 -0.664344 -0.877956 
2043 2 -2.01906 -0.128834 -1.78439 
1067 2 -1.55111 -0.206721 -0.91837 
1735 2 -1.23164 0.176562 -1.59136 
1213 2 -0.488181 0.378251 -1.04909 
160 1 0.368823 -0.155554 -1.83395 
1944 2 0.696885 0.692942 -0.965641 
886 1 1.61476 0.0368733 -1.54805 
121 1 0.919949 -0.351809 -1.18413 
1897 2 2.44002 -0.82435 -1.34636 
243 1 2.27182 0.215246 -0.96656 
1017 1 2.93154 0.670353 -1.5184 
1952 2 3.86695 0.0113304 -1.7321 
1680 2 3.13142 -0.474998 -1.40909 
1468 2 5.56743 0.503806 -1.27867 
1220 2 4.80231 0.174401 -1.40143 
2030 2 4.53409 -0.263961 -0.671889 
1059 2 -5.39167 0.857325 -1.46519 
1305 2 -4.82168 0.753324 -0.894047 
298 1 -5.50705 1.75588 -0.912803 
2038 2 -4.29237 1.05725 -1.38723 
1520 2 -3.55151 1.44943 -1.57395 
1229 2 -3.60995 1.2936 -0.697526 
357 1 -2.36047 0.748283 -1.40338 
1170 2 -2.79969 1.62178 -1.07897 
397 1 -1.85101 1.21364 -1.98631 
1162 2 -2.12484 1.9419 -0.379272 
919 1 -1.4469 1.25128 -1.22007 
115 1 -0.903339 1.67309 -1.85642 
303 1 -2.06034 0.794414 -0.522787 
1860 2 0.00286845 0.786144 -1.53064 
660 1 -0.504548 1.46704 -1.00091 
1642 2 2.02152 1.57021 -1.76704 
1838 2 1.43712 1.05494 -1.24662 
1967 2 2.68238 1.61573 -0.910049 
1368 2 3.21467 1.87698 -1.5687 
104 1 3.13588 0.340902 -0.724384 
1866 2 3.86056 2.03699 -0.940031 
920 1 3.83172 0.909364 -1.36685 
194 1 4.45197 1.40786 -1.6451 
16 1 5.84157 1.82086 -1.51177 
351 1 4.97267 1.32538 -0.992519 
761 1 -4.88177 2.12728 -1.53993 
1662 2 -5.88025 3.11345 -1.88594 
1399 2 -5.8214 2.80398 -0.799384 
1330 2 -5.20408 3.24372 -1.25321 
966 1 -4.29749 2.04705 -0.855292 
322 1 -3.84927 2.61418 -1.3332 
460 1 -3.04313 2.70197 -0.790802 
520 1 -2.51581 3.11251 -1.32637 
1092 2 -2.31108 2.19382 -1.63012 
111 1 -2.15404 3.0501 -0.539206 
1080 2 -1.73197 2.13754 -1.03348 
2021 2 -1.4241 2.59868 -1.74316 
1756 2 -0.689475 3.02683 -2.13149 
910 1 0.208712 1.93142 -1.54063 
1247 2 -0.720188 2.48634 -0.849849 
1679 2 -0.167796 2.93309 -1.26622 
1974 2 0.540034 2.83293 -0.608498 
823 1 0.913958 1.97266 -1.01056 
747 1 1.70048 2.40607 -1.29258 
143 1 2.75776 2.85382 -1.11521 
114 1 2.06855 2.25449 -0.514407 
906 1 3.91076 3.34557 -1.24631 
1786 2 4.51494 2.51824 -1.35502 
1811 2 4.96883 2.362 -0.582734 
1554 2 5.31399 2.68487 -1.29803 
506 1 -5.50197 4.02751 -0.777522 
641 1 -4.59107 4.56138 -0.728198 
1287 2 -4.76503 3.60298 -1.83381 
1971 2 -3.81502 3.92427 -1.71841 
1669 2 -4.08873 3.57373 -0.958191 
1601 2 -2.52248 4.37469 -1.57688 
733 1 -2.14451 3.64292 -1.97983 
1348 2 -1.74931 4.50547 -1.23358 
86 1 -1.61333 3.40326 -1.09194 
165 1 -0.518338 3.88437 -1.09196 
905 1 0.327216 3.99313 -1.14281 
1981 2 0.734495 3.15074 -1.62382 
1107 2 1.33534 3.3484 -0.883929 
1997 2 1.7309 3.67171 -1.61484 
187 1 1.18507 4.50504 -1.09053 
1913 2 2.56207 3.83591 -0.676272 
1868 2 2.9403 4.21381 -1.54719 
650 1 4.5588 3.86148 -1.78383 
1405 2 3.67577 4.47941 -1.43165 
1842 2 3.34672 3.9556 -0.75133 
1267 2 4.30633 4.61609 -0.812571 
579 1 -5.79453 4.4254 -1.91427 
582 1 4.88968 3.58277 -0.815069 
258 1 5.45909 3.88515 -1.46461 