ITEM: TIMESTEP
8600
ITEM: NUMBER OF ATOMS
2048
ITEM: BOX BOUNDS pp pp pp
-5.9448076043796894e+00 5.9448076043796894e+00
-5.9448076043796894e+00 5.9448076043796894e+00
-5.9448076043796894e+00 5.9448076043796894e+00
ITEM: ATOMS id type x y z 
1192 2 -5.22147 -4.78648 -5.32992 
825 1 -4.99328 5.70779 -4.65952 
1272 2 -5.78367 -5.17163 -4.76672 
412 1 -4.58264 -5.58196 -5.48187 
554 1 -3.89746 -5.25462 -5.77043 
14 1 -4.2294 -5.68208 -4.73424 
3 1 -3.08014 -4.91497 -5.88888 
1138 2 -2.28459 -5.89007 -5.62058 
91 1 -2.70032 -4.99119 -5.26111 
247 1 -2.22308 -5.10624 -4.58666 
333 1 -3.44706 -5.3365 -5.08514 
1291 2 -1.79817 -5.91057 -4.96812 
1429 2 -0.585606 -5.42657 -4.76437 
1035 2 -1.15755 -5.42048 -5.42093 
1746 2 0.317806 -4.79413 -5.22672 
1709 2 0.988524 -4.60405 -4.76693 
135 1 1.2713 -5.40026 -5.3816 
857 1 2.08339 -5.20521 -5.37743 
434 1 2.30502 -4.92832 5.68321 
1823 2 2.69921 5.73664 -5.6026 
64 1 2.82333 -5.1419 -4.92535 
481 1 3.2351 -4.62181 -5.7344 
1677 2 4.33999 -5.47211 -5.64684 
1846 2 3.41273 5.83919 -5.075 
809 1 3.99982 -4.80555 -5.04432 
1799 2 5.71111 -5.05228 -5.62657 
1875 2 5.09132 -5.26581 -5.01366 
1849 2 -5.51768 -4.67737 5.87937 
273 1 -5.76975 -3.49232 -5.93366 
1633 2 -4.81215 -4.1897 5.86836 
1548 2 -4.36886 -4.42211 -5.35795 
991 1 -4.75813 -3.36523 -5.1155 
1663 2 -3.72141 -3.98571 -5.82561 
1046 2 -2.75957 -3.55263 -5.72753 
1472 2 -2.52159 -3.78289 -5.01921 
902 1 -1.04993 -4.59607 -4.40673 
855 1 -1.78168 -4.51 -5.0025 
924 1 0.119183 -3.63981 -5.35007 
467 1 -0.491629 -4.1408 -4.95119 
227 1 -1.07486 -4.24255 -5.51187 
1790 2 1.03567 -4.30341 -5.77979 
819 1 1.02043 -3.44119 -5.01835 
1737 2 1.77545 -4.21723 -5.17211 
1705 2 2.16077 -3.38997 5.04673 
1466 2 2.06616 -3.95768 -5.87302 
1483 2 2.80341 -3.49413 5.64232 
1836 2 2.74538 -3.99279 -5.18852 
429 1 4.19825 -4.25943 -5.76721 
1995 2 3.41082 -4.04746 -4.61814 
1929 2 4.08119 -3.36414 -4.98745 
19 1 4.72265 -4.27488 -5.00559 
817 1 4.82012 -3.89731 5.86779 
75 1 5.4923 -3.9942 -5.41515 
1937 2 -5.12833 -2.27288 -5.27601 
1657 2 -5.58392 -2.80658 -4.48669 
269 1 -4.05618 -2.79778 5.82915 
1465 2 -4.36399 -1.78666 -5.74624 
218 1 -3.92389 -3.05339 -5.30708 
353 1 -3.2265 -2.26948 5.53689 
391 1 -2.26001 -2.23983 -5.50121 
402 1 -3.15465 -2.58741 -5.49829 
151 1 -2.20649 -2.57154 -4.71282 
1231 2 -1.79191 -3.40521 -5.02859 
1763 2 0.78315 -2.43117 -4.61679 
1255 2 -0.0709908 -2.66947 -5.09326 
1909 2 0.610678 -2.28392 -5.61736 
169 1 1.74964 -3.03062 -5.3044 
694 1 2.45343 -3.06978 -4.66326 
475 1 2.4458 -2.64929 -5.56693 
1129 2 3.47609 -3.46998 -5.58197 
939 1 3.27596 -2.61881 -4.95382 
904 1 4.25399 -2.04732 -5.31044 
136 1 3.26923 -2.26617 5.99122 
1070 2 5.94351 -2.56526 -5.34904 
1475 2 4.52891 -3.08221 -5.67063 
214 1 -4.58733 -1.17237 -4.73954 
543 1 -5.52405 -1.29051 -4.82998 
730 1 -4.96712 -0.952446 -5.59623 
55 1 -4.07137 -0.652222 -5.50704 
1341 2 -3.52891 -1.41106 -5.65971 
505 1 -3.83713 -0.818941 -4.7024 
1745 2 -4.12954 -2.14726 -5.00158 
1733 2 -3.42744 -1.83826 -4.92416 
1809 2 -2.71254 -1.26854 -5.25664 
1569 2 -1.92349 -1.02761 -5.21625 
387 1 -1.34479 -2.08726 -4.88614 
595 1 -0.533926 -1.90225 -4.66978 
35 1 0.214848 -1.39739 -4.69406 
8 1 0.966663 -1.08161 -4.50051 
1555 2 1.28575 -2.00781 -5.1042 
1964 2 2.14842 -1.36327 5.74317 
1190 2 2.21962 -1.66502 -5.29057 
1202 2 2.29194 -1.09658 5.00758 
1775 2 2.98762 -1.2849 -5.74948 
1363 2 3.80516 -0.89776 -5.47424 
485 1 4.08734 -1.77555 5.66918 
25 1 4.97323 -1.51028 -5.49513 
308 1 4.90769 -1.36418 5.57995 
771 1 5.79183 -1.48626 -5.36266 
2036 2 4.82655 -0.6938 -4.91218 
1830 2 -5.46923 0.0144235 -5.39218 
2028 2 -4.22778 0.33497 -5.1384 
1343 2 -4.01164 0.820901 -5.80613 
749 1 -2.35633 0.0118764 -4.99657 
701 1 -3.12411 -0.338456 -5.15234 
374 1 -2.6501 0.183229 -5.87142 
859 1 -3.50842 -0.117767 5.96397 
234 1 -1.13188 0.277807 -5.02604 
212 1 -1.72987 0.310548 -5.58392 
1867 2 -0.881748 -0.614723 -5.03509 
1414 2 -1.35471 -0.62595 -5.83603 
1478 2 0.042711 -0.374945 -4.93539 
1573 2 0.409732 0.0918982 -5.78224 
1572 2 -0.368238 -0.283312 -5.8511 
578 1 1.12522 -0.965028 -5.32547 
1963 2 1.21507 0.399884 -5.51925 
1223 2 0.806593 -0.0154485 -4.72384 
31 1 1.67354 -0.445685 -5.94802 
1180 2 1.97109 0.328168 -4.79781 
560 1 2.64936 -0.601599 -4.47991 
866 1 3.3506 -0.147282 -4.94581 
700 1 4.00756 0.388102 -5.24235 
116 1 4.33746 0.191167 -4.54455 
1224 2 4.58963 -0.453056 -5.66746 
1623 2 5.71045 -0.408144 -5.10619 
469 1 5.15969 0.49087 -4.60788 
915 1 -5.32778 0.928582 -4.44155 
420 1 -5.13618 1.31201 -5.18594 
697 1 -4.42144 1.23425 -4.58374 
1643 2 -3.30305 0.669443 -4.95385 
338 1 -4.12757 1.73486 -5.36508 
980 1 -3.50914 1.6515 -4.59632 
1443 2 -2.81372 1.09844 -5.68086 
1576 2 -1.95191 1.36266 -5.32992 
1050 2 -2.5073 0.98674 -4.64521 
827 1 -0.622681 0.76613 -5.34093 
1063 2 -1.04152 1.76052 -5.12973 
842 1 0.182493 1.0804 -5.42532 
1639 2 -0.88458 2.15152 -5.75637 
156 1 0.71519 1.44195 5.68457 
408 1 1.92735 1.72798 -5.6735 
895 1 2.79063 2.14228 -5.24324 
80 1 0.502927 0.935508 -4.51715 
1785 2 2.43657 0.856544 -5.39886 
1852 2 1.71814 0.666503 5.79094 
1882 2 3.16111 1.32194 -5.61025 
1226 2 4.28822 1.39086 -5.07427 
1910 2 3.39468 1.06073 -4.76884 
1463 2 4.03434 1.6933 -5.99008 
302 1 4.98958 0.787696 -5.57026 
1204 2 4.92303 1.88756 -5.68682 
1431 2 -5.54082 2.18439 -4.96198 
1716 2 -4.63967 2.4894 -5.12465 
1654 2 -4.74766 2.19669 -4.32489 
1403 2 -5.38135 2.61771 5.96914 
752 1 -3.38668 2.14133 -5.63705 
1620 2 -3.85747 3.09896 -5.537 
820 1 -2.71954 1.98337 -4.87404 
1015 1 -1.85536 2.35596 -4.87496 
1877 2 -3.23359 2.89296 -4.87206 
264 1 -2.57316 2.4236 -5.70618 
719 1 -1.17319 2.45915 -4.27528 
494 1 -1.0378 2.81904 -5.07449 
28 1 -1.84562 2.80528 -5.55385 
852 1 -0.157478 3.11791 -5.0213 
1683 2 0.638058 2.39899 -5.17944 
1884 2 0.124451 2.46863 -5.83994 
1506 2 1.61633 2.82787 -5.40193 
621 1 3.71653 2.60517 -5.47514 
1214 2 2.37917 2.90642 -4.19231 
1769 2 3.28671 3.38399 -4.68903 
396 1 4.52008 2.72332 -5.1815 
445 1 4.87332 3.53958 5.09397 
1396 2 5.71679 2.34897 5.94004 
869 1 4.91941 3.19312 -5.80022 
188 1 -5.77968 3.09894 -4.5386 
923 1 -4.87259 3.42437 -4.35164 
607 1 -4.08308 4.31078 5.47498 
1349 2 -5.97005 4.45671 -5.10887 
644 1 -4.58499 4.06143 -5.66491 
797 1 -4.15931 3.76139 -4.79118 
45 1 -3.69958 4.35211 -5.4521 
1142 2 -2.68607 3.46078 -5.27505 
250 1 -2.98244 4.42541 -4.73159 
1482 2 -3.23137 3.56711 -5.87883 
1869 2 -2.06271 3.74921 -5.86046 
1824 2 -1.54724 3.74487 -4.8968 
1336 2 -0.913625 4.14833 -5.2195 
1926 2 -0.0577302 4.49568 -5.2556 
710 1 -0.479191 3.36751 5.99036 
561 1 0.346745 3.50474 -5.57466 
72 1 0.798146 4.09361 5.8892 
709 1 2.00978 4.00723 -4.93518 
310 1 1.11927 3.77279 -5.31059 
815 1 1.69172 4.30553 -5.70641 
716 1 2.96199 4.39206 -4.58946 
1130 2 2.51585 3.53033 5.9517 
1274 2 3.35284 3.68026 -5.74939 
1073 2 4.11908 3.75075 -4.94766 
204 1 -5.28613 3.6083 -5.22104 
1618 2 4.28183 4.14644 -5.88324 
1640 2 4.92641 4.0647 -5.07866 
407 1 -5.5421 5.87086 -5.33738 
1670 2 -5.91756 4.77575 -5.92201 
1048 2 -5.06817 4.81502 -5.2321 
1413 2 -4.25721 5.27416 -5.32842 
1353 2 -3.4117 5.6078 -5.70539 
1757 2 -2.80555 5.55788 -5.04873 
577 1 -2.38577 4.59822 -5.46756 
17 1 -1.72913 5.09866 -5.78975 
123 1 -0.345034 5.3733 -4.55442 
1354 2 0.412868 5.03757 -5.95135 
495 1 0.0935312 5.72952 -5.25166 
822 1 0.702269 5.88772 -4.65891 
1039 2 1.03806 4.88481 -5.12461 
1193 2 1.90545 5.5242 -5.30135 
1033 2 1.28268 5.30035 -5.78353 
1847 2 2.61529 5.34418 -4.65972 
501 1 3.42922 4.66208 -5.46964 
653 1 3.86247 4.60303 -4.58224 
48 1 4.11651 5.04529 -5.34021 
662 1 4.84041 5.0857 -4.83796 
699 1 5.62362 5.44927 -4.96677 
486 1 4.98156 5.57569 -5.60452 
1418 2 -4.87091 -4.76101 -4.63295 
496 1 5.68914 -4.69406 -3.67245 
1358 2 -4.94856 -5.17067 -3.97641 
1079 2 -3.96422 -4.7735 -3.71411 
1008 1 -3.71833 -5.76857 -4.09729 
1807 2 -3.42482 -4.26048 -4.07694 
473 1 -4.63985 5.72217 -3.80699 
508 1 -3.27342 -5.79535 -3.43718 
805 1 -2.99763 -5.41686 -4.30621 
453 1 -1.6545 -5.04601 -3.84206 
1334 2 -1.30291 5.87733 -4.29244 
934 1 -0.818323 -4.71741 -3.50635 
1029 2 -0.459462 -5.72693 -3.79984 
1260 2 0.186924 -5.08194 -4.32659 
1592 2 0.283509 -5.48468 -3.50045 
1486 2 1.08716 -4.99078 -3.90258 
673 1 1.60701 -5.67942 -4.46428 
1678 2 1.71094 -4.59103 -4.31879 
648 1 2.4343 -5.53535 -4.30993 
723 1 3.3716 -5.20888 -4.23641 
131 1 4.22475 -5.03165 -4.14662 
1013 1 4.63139 -5.10185 -3.2594 
1244 2 4.26345 -5.93858 -4.92243 
1604 2 -5.89454 -5.5105 -3.98467 
1704 2 5.28919 -5.70797 -4.40646 
878 1 -5.51057 -3.81634 -5.01183 
246 1 -4.57408 -3.89175 -3.52381 
798 1 -5.35673 -4.2999 -3.68523 
1477 2 -3.94108 -4.54117 -4.64036 
483 1 -4.64242 -3.76307 -4.35574 
1261 2 -3.27813 -4.11308 -5.03447 
524 1 -3.70478 -3.45223 -3.49267 
1452 2 -2.59372 -4.12054 -4.23556 
1402 2 -2.93983 -4.55333 -3.45656 
1602 2 -1.79011 -3.80516 -4.22324 
2009 2 -2.01196 -4.12614 -3.45251 
1711 2 -1.07973 -3.58356 -4.00183 
326 1 -0.130676 -4.32442 -3.94698 
782 1 1.0542 -3.88518 -3.7052 
413 1 0.479128 -3.72477 -4.51818 
107 1 1.90539 -3.87004 -3.35985 
1198 2 2.50307 -4.30756 -4.1857 
1844 2 3.12126 -4.19891 -3.73754 
1082 2 1.87766 -4.90591 -3.44904 
2010 2 4.19172 -4.05856 -3.84791 
1563 2 2.60658 -4.73646 -3.23662 
1655 2 4.77184 -3.53106 -4.42988 
339 1 5.74849 -4.28572 -4.49669 
847 1 4.98024 -4.75727 -4.01664 
1911 2 -4.74249 -2.40983 -4.5291 
833 1 -5.63134 -1.86108 -3.87644 
1664 2 -5.43383 -2.96258 -3.67722 
1871 2 -4.75021 -2.78547 -3.37841 
1097 2 -4.17899 -2.59107 -4.01407 
1086 2 -3.38376 -2.39536 -3.13284 
664 1 -3.73939 -3.3675 -4.506 
236 1 -3.04512 -3.11428 -3.90178 
196 1 -3.0047 -2.9498 -4.76554 
388 1 -2.91845 -3.51049 -3.05823 
657 1 -2.14821 -2.94685 -3.72596 
573 1 -1.38942 -2.79002 -3.24906 
1379 2 -0.828523 -3.06222 -4.87294 
1370 2 -0.427168 -3.27811 -3.47737 
1006 1 -0.759418 -2.2226 -3.91189 
1581 2 -0.126317 -3.01827 -4.30091 
1645 2 0.758742 -2.85111 -3.74976 
122 1 1.58366 -3.41477 -4.34376 
1083 2 2.0419 -2.03311 -4.62883 
1982 2 1.5225 -2.38683 -3.95242 
1401 2 1.40746 -3.02046 -3.15656 
471 1 3.23698 -3.02347 -4.15798 
547 1 2.35692 -3.28216 -3.89635 
1259 2 2.8395 -1.96008 -4.17686 
277 1 4.11509 -2.47492 -4.58631 
602 1 3.8871 -3.17037 -3.53513 
999 1 4.57404 -2.6899 -3.83089 
2032 2 5.13507 -2.95876 -4.97091 
609 1 4.90946 -2.06368 -4.70821 
1201 2 5.63683 -3.28085 -4.27069 
66 1 5.45714 -2.45489 -3.80858 
717 1 -4.91256 -1.53136 -4.0853 
205 1 -5.42473 -1.9502 -3.03577 
848 1 -4.06726 -1.4234 -3.77413 
161 1 -4.6088 -1.79119 -3.28064 
767 1 -3.23273 -0.963102 -3.9461 
1271 2 -3.40662 -2.15081 -4.08639 
1908 2 -2.37703 -1.58545 -4.45958 
1635 2 -1.81308 -1.65693 -3.75056 
597 1 -1.41288 -2.5975 -4.10633 
1345 2 -1.38398 -1.09183 -4.60022 
367 1 0.195098 -2.17395 -3.22759 
11 1 0.142976 -1.93534 -4.03428 
1537 2 -0.538809 -1.04224 -4.23721 
1296 2 0.163703 -0.503477 -4.02742 
421 1 0.855437 -1.68643 -3.76477 
768 1 1.74577 -1.24769 -4.03164 
674 1 1.96045 -0.72044 -4.92654 
1030 2 3.25006 -1.52494 -4.91718 
106 1 2.53073 -1.00945 -3.69786 
2048 2 4.04198 -1.20379 -4.63856 
1167 2 3.70573 -1.65636 -4.03037 
740 1 5.63511 -1.83162 -4.50017 
1163 2 5.17867 -0.90571 -4.17729 
1110 2 4.4051 -1.4198 -3.80393 
2001 2 -5.79246 -0.516264 -4.36158 
1111 2 -5.1425 -0.647702 -3.64451 
1498 2 -4.94993 -0.0501731 -4.7141 
872 1 5.91868 0.544215 -4.09192 
1184 2 -3.7683 0.272911 -4.32892 
1834 2 -3.65337 -0.14545 -3.56018 
1436 2 -4.49495 -0.180394 -3.96711 
704 1 -2.68483 -0.526123 -4.33507 
1736 2 -2.92343 0.459771 -3.99567 
1761 2 -2.76533 0.0745855 -3.14216 
37 1 -1.71619 -0.1287 -4.41442 
799 1 -0.925912 0.0993797 -3.88827 
789 1 -0.24087 0.469252 -4.5549 
517 1 0.258412 0.486316 -3.67236 
1456 2 0.84985 -0.645896 -3.39583 
1975 2 1.50292 -0.0855589 -3.86138 
1412 2 2.45244 0.175843 -3.70364 
640 1 3.70956 -0.283075 -4.19334 
1470 2 2.65756 0.745822 -4.64551 
1832 2 3.07199 0.0388477 -3.17495 
1517 2 1.8588 -0.387778 -3.15911 
846 1 4.3368 -0.40019 -3.5477 
427 1 3.43617 -0.768151 -3.5115 
1777 2 3.19394 0.585013 -4.02159 
199 1 4.0695 -0.915575 -2.95287 
715 1 5.08572 0.131697 -3.79744 
692 1 5.4071 -0.09054 -3.00134 
278 1 -4.84801 0.737703 -3.77273 
1986 2 -5.13798 1.49571 -3.23289 
164 1 -3.35787 0.934443 -3.28481 
689 1 -3.97629 1.2857 -3.81849 
489 1 -3.11663 1.62609 -3.84108 
1550 2 -2.10784 0.818682 -3.85709 
686 1 -2.34859 1.66738 -3.28635 
1054 2 -1.62558 1.06937 -4.55944 
1149 2 -1.17016 0.994978 -3.61799 
134 1 -1.10344 1.8787 -2.80838 
1386 2 -0.685298 1.48534 -4.22532 
1310 2 0.301607 1.78438 -4.27181 
625 1 1.10653 0.789275 -3.74633 
254 1 1.05325 1.54403 -5.28521 
760 1 1.40136 1.18966 -4.55555 
1838 2 0.875628 1.76307 -3.53185 
380 1 2.1393 1.72636 -4.71069 
1011 1 2.40199 1.55737 -4.02196 
731 1 2.7278 1.21148 -3.29198 
894 1 3.16228 1.96975 -4.38872 
381 1 3.3926 1.88586 -3.65444 
2008 2 4.02343 1.05088 -3.93814 
1172 2 4.72413 1.50627 -4.51185 
1497 2 5.44437 1.89949 -4.96103 
1068 2 5.55741 1.67462 -4.2323 
1953 2 4.88215 1.23782 -3.71015 
1377 2 -5.58816 1.8479 -3.91587 
369 1 -4.76371 3.00043 -3.01767 
631 1 5.69531 2.6418 -3.78643 
1485 2 -4.46072 2.06102 -3.51035 
1728 2 -3.89657 2.60216 -4.35443 
1794 2 -3.59731 2.48463 -3.70047 
903 1 -2.25437 1.96658 -4.12586 
1625 2 -2.85611 2.85771 -3.97421 
1607 2 -2.08299 3.08552 -3.44855 
982 1 -0.407569 2.79295 -4.30793 
585 1 -1.51187 2.10001 -3.44858 
1364 2 -0.18897 1.89245 -4.9627 
843 1 0.540089 3.05828 -4.52794 
397 1 0.249331 2.8655 -3.73284 
1628 2 1.69671 2.58833 -4.62085 
2020 2 1.07408 2.3003 -4.16854 
1158 2 1.63852 1.89371 -2.93651 
885 1 1.09654 2.95456 -2.8762 
1999 2 1.68535 2.3753 -3.58234 
1522 2 3.20768 2.93429 -3.77259 
1562 2 3.65268 2.87294 -3.10836 
171 1 3.86242 2.44608 -4.65227 
1439 2 4.60578 3.15284 -3.27637 
232 1 4.16654 2.0574 -3.51133 
726 1 5.18818 2.80627 -4.66836 
702 1 4.74446 2.48871 -4.13755 
1575 2 -5.29865 4.45037 -4.37025 
676 1 -5.16237 2.9027 -3.77515 
1275 2 -5.7172 4.00611 -3.68863 
92 1 -4.19863 3.43133 -3.6794 
1957 2 -4.75988 4.39216 -3.58287 
446 1 -3.41904 3.74766 -4.40507 
340 1 -1.87221 4.72784 -4.74514 
1175 2 -2.17572 3.31747 -4.4987 
772 1 -2.49722 4.27071 -4.13009 
1268 2 -1.27272 3.62215 -4.07166 
1689 2 -0.487077 3.88882 -4.50782 
612 1 -1.62343 4.38922 -3.63648 
1304 2 0.022685 4.14105 -3.92412 
1183 2 0.195745 3.77917 -2.76496 
1616 2 -0.37794 3.61403 -3.38731 
56 1 0.896151 3.22683 -3.6458 
896 1 1.73673 3.54082 -3.43431 
1161 2 0.363363 4.49626 -4.53958 
1372 2 0.640993 4.16661 -3.34935 
884 1 1.41894 3.60977 -4.38525 
183 1 2.15855 3.25831 -2.68491 
256 1 2.26413 4.00282 -4.05568 
2039 2 4.07779 3.40069 -3.90725 
835 1 3.14352 4.03491 -3.82148 
775 1 4.1623 4.05157 -3.12541 
1971 2 5.61855 4.01486 -4.38005 
1333 2 5.27942 3.59703 -3.51271 
1636 2 4.84873 3.82187 -4.22293 
435 1 -5.7604 5.39872 -4.23272 
918 1 5.69005 5.06985 -3.3557 
346 1 -5.38513 5.21618 -3.47172 
1038 2 -4.35631 4.68429 -4.5025 
1236 2 -3.90219 4.7682 -3.77451 
1526 2 -3.62236 5.08742 -4.64913 
1151 2 -2.30478 5.56419 -4.39828 
1329 2 -2.97853 5.37367 -4.08055 
82 1 -1.1208 5.1227 -5.11939 
568 1 -0.960428 4.75926 -4.12425 
1571 2 -1.78617 5.56655 -3.74922 
628 1 -0.411713 4.91629 -3.48719 
503 1 0.309318 5.39476 -3.92933 
564 1 0.56607 5.24306 -3.17582 
959 1 1.04774 5.81078 -3.85632 
1668 2 1.54134 5.07436 -4.54223 
2040 2 1.05995 4.57048 -4.04591 
575 1 1.92706 5.87922 -3.57867 
1955 2 2.24366 5.07187 -3.81052 
1093 2 1.73842 4.49877 -3.35286 
1667 2 3.58403 5.42656 -4.27479 
1691 2 3.19523 5.23158 -3.55963 
1489 2 4.43024 5.82461 -4.09205 
579 1 5.2262 4.98165 -4.05957 
443 1 4.31033 4.59881 -3.88966 
1425 2 5.05733 5.86981 -3.55905 
262 1 5.03242 4.51274 -3.25279 
1394 2 -5.41441 -5.55202 -3.1999 
1197 2 -4.41966 -5.2242 -2.99777 
1822 2 -4.54875 -5.47054 -2.18896 
1047 2 -3.61357 -5.00576 -2.96645 
1404 2 -3.73245 -5.22029 -2.09119 
1783 2 -2.8446 -4.85782 -2.39597 
260 1 -2.44597 -5.66558 -2.88755 
1531 2 -2.76558 -5.03366 -1.54143 
274 1 -2.34841 -5.41806 -3.70872 
337 1 -1.41349 -5.27272 -2.94787 
954 1 -1.84243 -5.68243 -2.31871 
5 1 0.53636 -4.36316 -3.26606 
147 1 -0.428878 -4.92817 -2.7102 
661 1 0.27354 -4.90257 -2.17084 
1818 2 -0.325491 5.8559 -3.04801 
1742 2 1.13225 -5.35461 -3.06602 
1747 2 0.55243 -5.88558 -2.52935 
1503 2 1.42317 -5.6994 -2.06845 
1319 2 1.93262 -5.21985 -2.58026 
1887 2 3.15129 -4.81689 -2.46092 
57 1 4.03011 -5.61254 -2.55895 
1194 2 3.98908 -4.70308 -2.03741 
49 1 3.89988 -5.35605 -3.31147 
666 1 5.25852 -4.9482 -2.84437 
955 1 4.75679 -5.4978 -2.16041 
284 1 -5.8594 -4.82661 -2.69721 
1400 2 -5.7166 -3.64207 -2.59583 
411 1 -5.11333 -4.39758 -2.82497 
864 1 -4.85786 -4.52549 -1.98722 
366 1 -4.25606 -4.06792 -2.6532 
599 1 -3.35566 -4.03069 -1.84052 
1106 2 -2.0483 -4.52956 -2.67853 
313 1 -3.46644 -3.99494 -2.79419 
71 1 -2.66909 -3.58459 -2.25245 
1280 2 -1.31123 -3.89219 -3.11998 
1843 2 -1.12258 -4.24395 -2.2054 
51 1 -1.85249 -3.38365 -1.87953 
1896 2 -0.383968 -4.17972 -1.4797 
1878 2 -0.169717 -3.72244 -2.76596 
328 1 1.00423 -4.34422 -2.60112 
1848 2 0.346913 -3.19506 -3.16706 
321 1 2.44574 -3.77169 -2.66992 
1263 2 1.69683 -3.21187 -2.09487 
938 1 1.80898 -4.21968 -2.43489 
403 1 2.98082 -3.32602 -3.21746 
914 1 2.69994 -4.045 -1.85113 
1521 2 3.69919 -4.4044 -3.09433 
754 1 3.5273 -3.88486 -1.57629 
1001 1 3.4107 -3.48084 -2.46011 
1240 2 4.45895 -4.19871 -2.73693 
1767 2 5.02408 -3.72835 -3.5 
1765 2 4.77124 -4.37685 -1.83738 
2002 2 5.36001 -3.89741 -2.64087 
1817 2 -5.88854 -3.52095 -3.51015 
1924 2 -5.10168 -3.08981 -2.59861 
968 1 -5.22138 -2.2691 -2.16745 
2007 2 -4.20299 -2.90024 -2.8554 
636 1 -4.45106 -2.03698 -2.32448 
1505 2 -3.03868 -2.6036 -2.25686 
1391 2 -2.33004 -2.22356 -2.82797 
753 1 -2.08543 -3.34968 -2.84351 
677 1 -1.12624 -3.11709 -2.27441 
526 1 -0.568517 -2.50399 -2.91436 
1457 2 0.958049 -3.38128 -2.51186 
211 1 0.65762 -2.48865 -2.10057 
1676 2 2.3722 -2.3169 -3.58163 
1533 2 2.13867 -2.71319 -2.76516 
1326 2 2.98062 -2.33134 -2.82974 
140 1 4.17938 -3.13871 -2.64235 
1350 2 4.31587 -1.89233 -2.95649 
1973 2 3.45697 -2.1127 -3.41187 
1123 2 3.22961 -2.61946 -2.06357 
291 1 5.79904 -2.53348 -2.83227 
213 1 5.80878 -2.80201 -1.96446 
784 1 5.00426 -2.85503 -3.03917 
1279 2 3.83559 -2.22309 -2.48759 
2035 2 -5.20849 -0.962896 -2.65916 
1972 2 -5.04191 -1.20664 -1.90097 
592 1 -3.84652 -1.55076 -2.6942 
1589 2 -4.13766 -0.601111 -2.23253 
285 1 -3.32041 -1.71964 -1.83013 
58 1 -3.17257 -1.1897 -3.01872 
1682 2 -2.59865 -1.92658 -3.61587 
917 1 -2.52273 -0.91749 -3.38631 
449 1 -2.61458 -1.32414 -2.24675 
1781 2 -1.00929 -1.249 -3.62385 
630 1 -0.813502 -0.513571 -2.35703 
1808 2 -1.58155 -1.80368 -3.00385 
117 1 -1.87841 -0.948343 -2.60756 
1870 2 -0.658578 -1.55834 -2.54678 
1069 2 0.341986 -1.27613 -2.38842 
1644 2 -0.0879903 -1.06463 -3.26671 
1057 2 0.620325 -1.36257 -1.56688 
1819 2 1.03833 -0.875779 -2.64867 
287 1 1.05604 -2.0135 -2.92916 
215 1 1.52278 -2.1723 -2.14409 
581 1 1.73942 -1.52268 -3.17889 
839 1 2.17152 -1.65523 -2.43156 
125 1 2.82371 -1.33798 -2.99828 
377 1 3.4492 -1.24653 -2.53571 
626 1 3.26902 -1.46524 -1.8752 
1754 2 5.15316 -1.47128 -3.38163 
1962 2 5.84895 -1.23506 -2.65062 
1346 2 5.84861 -0.860601 -3.40202 
334 1 4.18965 -1.20295 -2.0152 
297 1 -4.88059 0.25756 -2.86779 
190 1 -5.62188 0.431214 -3.34243 
1876 2 -4.4798 -0.610227 -3.10669 
1098 2 -3.44043 -0.257974 -2.63637 
32 1 -4.24185 0.587154 -3.13658 
1206 2 -2.30598 -0.0885744 -2.40786 
1432 2 -2.97349 -0.284202 -1.89221 
419 1 -1.91617 -0.429063 -3.77066 
898 1 -1.2449 -0.330806 -3.23524 
499 1 -0.282141 -0.0596888 -2.93714 
594 1 0.60548 0.0751602 -2.67071 
464 1 1.11271 0.0718754 -2.06662 
783 1 1.97254 0.330389 -1.9272 
1916 2 1.92359 -0.655452 -2.35347 
886 1 1.54815 0.469801 -2.80286 
1360 2 2.54818 -0.355178 -2.6515 
50 1 2.3852 0.759079 -2.67803 
1673 2 3.87307 0.662507 -3.26517 
2027 2 3.55538 -0.0282683 -2.47763 
241 1 -5.70749 -0.0061635 -2.50022 
109 1 4.84464 -0.818962 -2.45796 
1724 2 5.69914 1.0167 -2.44351 
1132 2 -4.46318 1.54416 -2.63132 
1512 2 -4.21473 1.38359 -1.79767 
1720 2 -5.27898 1.2256 -2.31186 
900 1 -3.63023 0.784572 -2.40437 
1938 2 -3.71233 1.88861 -2.92572 
613 1 -2.58562 1.10834 -2.70942 
189 1 -1.83079 1.43257 -2.40698 
94 1 -2.89313 0.869943 -2.00801 
2022 2 -1.89581 0.460648 -2.93053 
115 1 -0.934283 1.58131 -1.72927 
1104 2 -0.669469 0.869815 -2.89136 
1187 2 -0.116596 1.38266 -3.45985 
1340 2 0.297435 1.19627 -2.49839 
1860 2 1.08401 1.20518 -2.4286 
1021 1 1.93014 1.08008 -3.46889 
492 1 3.18667 0.918297 -2.23061 
1642 2 2.35849 1.83574 -2.53282 
1786 2 2.60568 1.87278 -1.76029 
874 1 3.63389 1.5382 -2.76382 
1017 1 4.00032 1.28558 -2.00901 
1952 2 4.90769 0.825399 -2.97308 
1858 2 5.69648 1.35347 -3.31724 
104 1 4.41977 1.84383 -2.67202 
194 1 -5.6325 2.53775 -3.04862 
276 1 -3.8146 3.31557 -2.83892 
1520 2 -3.14479 1.95226 -2.46034 
1415 2 -3.07464 2.45794 -3.04594 
1959 2 -2.27492 2.61067 -2.82429 
1476 2 -1.20655 3.21945 -3.03154 
208 1 -0.553522 2.39871 -3.38069 
2021 2 -1.49202 2.81627 -2.34664 
301 1 -0.397928 2.01159 -2.39728 
76 1 0.263297 2.56095 -2.93802 
1107 2 -0.554875 2.73545 -1.61652 
1974 2 0.192511 2.87168 -1.24392 
143 1 1.17567 2.11829 -1.52688 
478 1 0.809735 2.36421 -2.30229 
510 1 1.70818 2.71531 -2.17587 
1461 2 2.51566 2.58429 -3.42113 
1330 2 3.09127 2.38213 -2.62722 
379 1 2.28015 2.71976 -1.60957 
1026 2 4.1441 2.79646 -2.36997 
811 1 5.13109 2.26292 -3.39666 
1994 2 5.15176 3.09035 -2.58172 
7 1 5.57318 2.08307 -2.66314 
1825 2 5.63898 3.16936 -1.86635 
1328 2 4.6693 2.72888 -1.66275 
1399 2 5.91347 3.44357 -2.83264 
1669 2 -5.2386 3.96328 -2.93609 
1278 2 -5.32507 3.56717 -2.12276 
1527 2 -5.73535 3.18149 -1.34572 
989 1 -3.30238 3.87415 -3.61318 
1419 2 -4.39393 4.06867 -2.60287 
1287 2 -3.80602 4.59424 -2.94555 
26 1 -2.87901 3.50088 -2.75899 
460 1 -2.36235 3.52684 -2.07613 
520 1 -2.45515 4.06411 -3.30552 
733 1 -1.81306 3.96812 -2.67275 
720 1 -0.992019 4.03013 -2.10982 
1756 2 -0.4502 3.11406 -2.45416 
1679 2 0.360534 3.28847 -2.09009 
111 1 0.0154861 4.22509 -1.82427 
1968 2 1.11636 3.92991 -2.61818 
1071 2 1.85462 4.09989 -2.4348 
1981 2 1.8032 3.71196 -1.3182 
34 1 2.80597 3.41047 -1.95393 
1499 2 2.44906 4.47082 -2.20312 
394 1 2.84712 3.7015 -3.17558 
448 1 3.44451 3.56745 -2.55952 
181 1 3.96942 3.64417 -1.90497 
355 1 5.43246 4.31685 -2.34212 
552 1 4.55653 3.91599 -2.52342 
370 1 -5.7702 4.75667 -2.49516 
993 1 -4.95919 5.17046 -2.73956 
255 1 -4.20959 5.63117 -3.16964 
295 1 -3.25294 5.76879 -2.60171 
342 1 -4.10208 5.4669 -2.44622 
1348 2 -2.95614 4.60968 -2.29962 
1335 2 -2.98067 4.98783 -3.33921 
229 1 -2.64194 5.96148 -1.9667 
86 1 -0.999043 4.37908 -2.97419 
1338 2 -1.21445 5.58231 -3.22839 
1543 2 -1.47667 5.11141 -2.55358 
1339 2 -2.17376 5.21405 -3.0975 
836 1 -0.122894 4.69938 -2.57554 
1915 2 -0.6582 5.46989 -2.29287 
652 1 0.68951 4.89362 -2.45346 
442 1 1.48515 5.40139 -2.86292 
180 1 3.37535 5.92804 -2.55229 
487 1 2.48495 5.78067 -2.9353 
667 1 2.98735 -5.66409 -3.5532 
1593 2 2.53768 4.70968 -2.92995 
1714 2 4.07201 5.46405 -3.41677 
1312 2 5.70387 -5.8283 -3.1279 
1534 2 5.56856 5.65253 -2.39193 
1773 2 5.02797 5.25166 -1.99102 
452 1 -5.59467 -4.7807 -1.84132 
456 1 -5.73253 -5.21438 -1.13914 
280 1 -4.67414 -4.79715 -1.09603 
1454 2 -3.52164 -5.4083 -1.18079 
1122 2 -4.33554 -5.84794 -1.34042 
1613 2 -1.96533 -5.05149 -0.884955 
1327 2 -1.11225 -4.99678 -0.441584 
1802 2 -2.05099 -4.69531 -1.80369 
678 1 -0.988794 -5.44834 -1.99398 
1932 2 -0.312236 -4.44482 -0.731641 
497 1 -0.508524 -5.57947 -0.890645 
459 1 -0.161899 -5.33419 -1.60773 
304 1 0.297399 -5.61266 -0.326485 
249 1 1.03959 -4.66086 -1.64855 
245 1 0.607053 -5.04681 -1.12446 
1019 1 1.69818 -4.81683 -0.788664 
1749 2 2.9898 -5.70198 -0.742897 
1928 2 2.49636 -5.17638 -1.9464 
1859 2 3.12535 -5.24765 -1.52856 
67 1 3.96688 -5.87264 -1.87 
1409 2 3.99799 -5.09698 -1.25427 
2019 2 3.76709 -5.34378 -0.531857 
153 1 5.5238 -5.16601 -2.04111 
422 1 4.4902 5.87507 -1.25293 
542 1 5.34307 -5.61998 -1.17906 
1131 2 -5.40963 -3.76177 -1.66627 
182 1 -4.09358 -4.33413 -1.52682 
1545 2 -4.63904 -3.47973 -1.92011 
1289 2 -3.59869 -3.16723 -1.32383 
504 1 -3.32296 -4.39276 -0.928845 
21 1 -2.55546 -3.9304 -1.35028 
46 1 -1.97236 -4.04262 -0.470313 
890 1 -1.70878 -3.71919 -1.08205 
324 1 -1.04706 -3.6329 -0.52513 
1246 2 -1.16946 -4.6506 -1.30846 
844 1 -0.911571 -3.25142 -1.42254 
1753 2 0.439447 -3.95021 -1.07375 
1580 2 0.200376 -3.82621 -1.96356 
1894 2 1.04263 -3.54592 -1.52734 
1066 2 1.81907 -3.57369 -1.1646 
20 1 2.04158 -4.4022 -1.56429 
550 1 2.91573 -4.38304 -0.990031 
1698 2 2.63075 -3.39021 -0.735434 
562 1 4.26564 -3.51685 -1.61673 
137 1 3.88484 -3.96683 -0.856392 
1530 2 5.65991 -4.10878 -1.79909 
2017 2 4.82158 -4.57762 -1.04056 
928 1 4.66045 -3.72217 -0.696492 
764 1 -5.60053 -2.85967 -1.23277 
734 1 -4.7368 -2.47126 -1.47851 
219 1 -4.48151 -2.44073 -0.701227 
1052 2 -3.84924 -3.04387 -2.12078 
275 1 -3.99058 -2.12072 -1.56371 
1442 2 -3.04345 -3.10358 -0.619021 
722 1 -2.85154 -1.75779 -1.08299 
1216 2 -2.86509 -2.88287 -1.46671 
1449 2 -2.1521 -2.46851 -1.9541 
1459 2 -2.22713 -3.00809 -0.392177 
1801 2 -1.28271 -1.98775 -2.02308 
1235 2 -2.07387 -2.68366 -1.12123 
1113 2 -1.16403 -2.48847 -1.00593 
830 1 -0.26649 -2.80367 -2.10944 
998 1 0.279203 -2.79306 -1.44011 
705 1 1.12717 -2.45373 -1.34253 
566 1 1.64311 -2.73228 -0.633478 
703 1 0.739924 -3.00216 -0.58014 
1991 2 2.49675 -2.98573 -1.68321 
1947 2 3.16861 -2.98973 -1.13944 
1978 2 3.93824 -2.66768 -1.44291 
1787 2 3.20508 -3.33974 -0.158453 
296 1 5.0106 -3.04372 -2.16354 
311 1 5.31638 -3.24776 -1.28408 
1641 2 4.49686 -2.22391 -1.78338 
1990 2 5.28682 -1.84638 -1.53393 
1826 2 -5.84241 -1.55903 -1.78703 
1792 2 -5.09579 -1.65111 -1.14152 
1514 2 -4.30194 -1.10662 -1.43134 
1025 2 -3.65414 -0.657785 -1.50351 
683 1 -2.24714 -1.83071 -0.374523 
548 1 -2.10409 -1.52398 -1.52892 
1174 2 -3.1842 -0.942365 -0.730354 
59 1 -1.51543 -0.974088 -1.79917 
160 1 -0.918952 -1.17849 -1.01312 
1143 2 -0.320362 -1.87075 -1.69707 
750 1 -0.436058 -1.12264 -0.210635 
1493 2 0.451554 -2.06848 -0.151037 
2046 2 1.33305 -1.0782 -1.71207 
1796 2 0.359544 -1.83506 -0.923907 
1010 1 1.96702 -2.23548 -1.31743 
1897 2 1.95992 -1.31932 -0.928621 
1568 2 2.36484 -0.829995 -1.50724 
145 1 2.61325 -1.84417 -1.76765 
867 1 3.8831 -1.43713 -1.24774 
1946 2 5.11878 -1.85433 -2.42051 
518 1 4.93546 -0.920767 -1.44941 
691 1 5.55848 -0.46096 -2.104 
230 1 -5.20636 -0.172963 -1.87445 
876 1 -5.86738 -0.589081 -1.39692 
654 1 -4.87356 -0.336951 -1.13082 
921 1 -3.45468 0.556527 -1.44629 
824 1 -4.41352 0.375096 -2.10549 
912 1 -4.04302 0.228769 -1.07493 
1507 2 -1.80781 -0.0828063 -1.72993 
1128 2 -2.38993 -0.635621 -1.20824 
2043 2 -1.3327 0.379707 -2.11106 
1067 2 -0.729324 0.343455 -1.39774 
963 1 -0.532639 -0.623173 -1.43192 
615 1 0.119378 -0.357359 -1.96487 
1893 2 0.209762 0.573003 -1.04119 
776 1 0.76308 -0.343625 -1.35947 
90 1 1.60347 -0.0203608 -1.26394 
858 1 2.74312 0.483989 -1.52473 
1314 2 3.12365 -0.393845 -1.89047 
1696 2 3.85281 -0.14397 -1.55672 
1320 2 4.45772 0.018468 -1.03556 
1502 2 4.32201 0.22431 -2.43964 
1680 2 3.50026 -0.53718 -0.779997 
1861 2 5.00476 0.451147 -1.96465 
1803 2 5.79815 0.562904 -1.52231 
1508 2 -4.74795 1.04836 -0.938926 
1282 2 -5.30397 0.897055 -1.56414 
110 1 -5.42503 1.9366 -1.00607 
1229 2 -3.40764 1.76425 -1.56296 
2038 2 -3.94358 1.2414 -0.974389 
1776 2 -2.58678 1.807 -1.31305 
1170 2 -1.72305 1.97734 -0.626456 
614 1 -1.83968 0.622754 -0.499071 
1305 2 -3.23091 1.37171 -0.731235 
307 1 -2.84791 0.344414 -0.904944 
259 1 -2.17939 0.977283 -1.62206 
192 1 -1.17326 1.10156 -0.919377 
1297 2 -0.254547 0.751055 -1.97136 
1726 2 1.03961 0.477939 -0.533604 
919 1 -0.404248 1.41265 -1.17624 
910 1 0.311882 1.27162 -0.108549 
828 1 0.449071 1.73697 -0.865089 
1944 2 0.571403 0.858694 -1.59001 
1712 2 1.79673 0.872797 -0.159131 
1681 2 1.39765 0.995886 -1.16978 
1967 2 1.81605 1.40465 -1.94746 
1874 2 2.21649 1.34385 -1.03878 
1718 2 3.22929 1.76383 -1.02963 
16 1 3.72429 0.857291 -1.2752 
557 1 4.50855 1.2518 -1.37291 
1065 2 3.99115 1.95362 -0.457489 
944 1 4.95271 1.62825 -2.05712 
351 1 5.56218 1.53379 -1.20315 
761 1 -5.90212 2.14121 -2.00242 
69 1 -5.0696 2.49478 -2.40654 
926 1 -4.80601 2.30321 -1.67678 
1276 2 -5.93329 2.59118 -0.527195 
1056 2 -4.94723 3.26533 -1.13611 
323 1 -3.42033 3.04787 -2.08534 
966 1 -4.17304 2.66001 -2.21628 
298 1 -3.95682 2.60255 -1.45252 
879 1 -2.97065 2.95072 -1.4052 
1839 2 -2.28317 2.29882 -1.84917 
322 1 -3.31531 2.49864 -0.721247 
1092 2 -1.4792 2.37617 -1.3358 
1406 2 -0.505334 2.4619 -0.651682 
240 1 0.294842 1.88201 -1.79756 
1428 2 0.457174 2.75009 -0.497728 
124 1 1.7465 2.33254 -0.992107 
1854 2 1.07624 3.20175 -1.26316 
114 1 2.78959 2.77222 -0.871883 
786 1 3.64655 2.78627 -0.290166 
1977 2 3.54751 2.33823 -1.86277 
742 1 3.49482 3.21092 -1.29838 
1866 2 4.15051 2.16741 -1.29147 
582 1 4.34719 3.35076 -0.913875 
1368 2 5.40821 2.61254 -1.18292 
1686 2 4.7997 2.31777 -0.751357 
961 1 -4.75152 4.52535 -1.10575 
166 1 -5.40667 4.6058 -1.71439 
1325 2 -3.63168 4.12062 -2.04424 
1105 2 -4.31402 3.7624 -1.60669 
1992 2 -3.46171 3.88268 -1.29394 
1155 2 -2.76119 4.24712 -1.48078 
1601 2 -2.22775 4.79568 -2.15709 
1023 1 -2.18286 3.07073 -1.01667 
418 1 -1.56683 3.58423 -1.68443 
165 1 -0.602048 3.77747 -1.29101 
266 1 -1.28988 3.32861 -0.822532 
361 1 0.562728 4.22795 -1.17786 
1997 2 1.17204 3.60038 -1.96498 
905 1 1.53812 4.68389 -1.05634 
1126 2 1.8363 3.28093 -0.574003 
736 1 1.05207 4.71999 -1.72841 
1559 2 3.30873 4.63173 -1.93681 
1042 2 2.64518 4.1258 -1.28376 
650 1 4.80009 3.91068 -1.56719 
1612 2 3.52444 4.82198 -2.76795 
1090 2 4.09888 5.11185 -2.19385 
432 1 5.76165 4.29524 -1.55538 
580 1 5.36865 3.75909 -0.872384 
974 1 -5.48226 4.11054 -0.801101 
1285 2 -5.47453 -5.79054 -2.3393 
589 1 -4.62559 4.89012 -2.0547 
1203 2 5.81339 5.43591 -1.54435 
1918 2 -5.18643 5.88046 -1.62821 
952 1 -3.94838 4.98772 -1.38062 
203 1 -3.27098 5.10532 -1.01299 