ITEM: TIMESTEP
26700
ITEM: NUMBER OF ATOMS
2048
ITEM: BOX BOUNDS pp pp pp
-5.9453315265304800e+00 5.9453315265304800e+00
-5.9453315265304800e+00 5.9453315265304800e+00
-5.9453315265304800e+00 5.9453315265304800e+00
ITEM: ATOMS id type x y z 
342 1 -5.34698 -5.72291 -5.79759 
1411 2 -4.6649 -4.70405 -4.54094 
346 1 -3.62354 -5.17325 -4.98193 
412 1 -4.36116 -5.24097 -5.87449 
274 1 -3.99057 -5.70555 -4.19729 
508 1 -2.83656 -5.09886 -4.98637 
3 1 -2.66743 -4.77595 -5.86372 
1035 2 -0.534932 -4.91424 -5.69564 
1551 2 -1.78997 -5.65732 -5.55248 
1038 2 -2.46137 5.89836 -4.93441 
1526 2 -2.59591 -5.9949 -5.90777 
1029 2 -0.988757 -5.60464 -5.07535 
1542 2 0.232895 -4.58805 -5.48173 
648 1 0.111243 -5.74411 -5.86267 
1236 2 1.19069 -4.32038 -5.65341 
237 1 1.09234 -5.69533 -5.4551 
1486 2 0.736943 -4.94307 -4.69851 
528 1 1.61332 -5.16344 5.82862 
442 1 2.06377 -5.31021 -5.37252 
425 1 2.38043 -4.79015 5.55794 
575 1 3.539 -4.99684 -4.52175 
1239 2 4.08327 -5.66751 -5.26544 
1799 2 4.8831 -5.25708 -5.73042 
1559 2 -5.32904 -4.94251 -4.93023 
1192 2 4.81918 -5.66924 -4.7467 
1714 2 5.65021 -5.34102 -5.04229 
1390 2 -5.4288 -4.487 5.57739 
684 1 -5.67169 -3.50699 -5.89043 
353 1 -5.40091 -3.55145 -5.1191 
373 1 -5.53877 -3.97717 -4.32414 
1467 2 -4.88547 -4.50154 -5.54842 
1472 2 -4.06792 -4.26594 -4.91408 
1715 2 -4.53428 -4.13432 5.57454 
91 1 -1.90804 -4.70967 -5.3287 
1249 2 -3.80774 -3.81776 -5.69998 
1270 2 -2.98028 -3.8291 -5.14648 
1710 2 -2.02727 -3.27223 -5.57312 
1255 2 -2.7409 -3.57167 -5.87974 
530 1 -1.55307 -4.78708 -4.56208 
1004 1 -1.79313 -4.07348 5.79786 
202 1 -1.04481 -4.06237 -5.31689 
1 1 -0.188796 -3.84019 -4.9844 
227 1 0.545324 -3.85858 -4.47779 
1984 2 1.69758 -4.52814 -4.82239 
782 1 0.856359 -3.47656 -5.24838 
1291 2 1.96215 -4.06639 -5.70461 
413 1 0.259864 -3.32649 -5.85026 
1678 2 2.53096 -4.04154 -5.0305 
1319 2 2.97458 -3.7345 -5.71308 
1483 2 4.74852 -3.34345 -4.93338 
1887 2 3.56382 -3.56496 -5.26085 
180 1 4.38324 -4.78096 -4.33984 
280 1 4.76699 -4.41956 -5.04279 
511 1 5.50685 -3.96129 -5.81662 
809 1 5.70489 -4.0301 -4.8272 
1937 2 -4.77693 -2.54764 -4.13238 
1745 2 -5.07556 -2.10661 -5.6187 
1588 2 -4.57874 -2.05966 -4.9208 
150 1 -4.1162 -2.94294 -5.14435 
283 1 -4.76055 -3.24203 -5.73956 
965 1 -3.06366 -2.79383 -4.88245 
664 1 -3.28911 -2.57375 -5.77386 
151 1 -2.518 -2.23668 -5.3853 
2009 2 -1.37322 -3.18433 -4.89599 
1006 1 -1.71359 -1.8363 -5.65515 
236 1 -1.75248 -2.24894 -4.82316 
1370 2 -1.07712 -2.80944 -5.65826 
1581 2 0.355058 -2.49546 -4.90982 
1515 2 -0.194433 -2.49168 -5.3944 
738 1 1.61409 -3.00959 -5.71227 
1555 2 1.16498 -2.55744 -4.14131 
819 1 2.1752 -3.06087 -5.08658 
122 1 2.70837 -2.6591 -5.68864 
547 1 2.64874 -3.20692 -4.29963 
1698 2 1.93345 -2.22679 -4.43281 
1705 2 5.4644 -3.04746 -5.09494 
939 1 3.11305 -2.72788 -4.96652 
1929 2 5.02488 -2.83311 -5.76467 
2032 2 -5.47982 -2.55681 -4.72195 
609 1 -5.174 -0.932805 -5.82598 
205 1 -4.85593 -1.15327 -4.44454 
562 1 -5.64814 -1.27019 -5.1716 
1924 2 -4.03808 -1.74253 -5.54671 
1271 2 -3.2009 -1.47502 -5.21405 
179 1 -4.58839 -0.854314 -5.14464 
701 1 -3.7384 -0.665448 -4.92502 
1171 2 -2.88477 -1.19805 5.8455 
595 1 -0.986672 -1.72801 -5.22712 
1975 2 -2.11686 -1.1557 -5.3207 
35 1 -0.134638 -1.39944 -4.97084 
788 1 0.608342 -0.671192 5.62055 
674 1 1.05923 -1.1547 -5.22389 
427 1 1.88852 -0.791574 -4.93792 
404 1 1.40458 -0.577201 -5.79867 
1881 2 1.2072 -2.17554 -5.24409 
1533 2 2.03358 -1.83096 -5.30871 
1363 2 2.86163 -1.44444 -5.36913 
1676 2 3.58869 -1.48275 -4.82098 
1190 2 3.68294 -1.08815 -5.6976 
706 1 4.63689 -2.16455 -5.10006 
277 1 5.44709 -1.68928 -5.27028 
999 1 5.73972 -1.25749 5.71317 
1030 2 4.37514 -1.11297 -5.18703 
25 1 4.78682 -1.7519 -5.93583 
2036 2 -5.5216 -0.0284963 -5.66044 
1615 2 -5.09426 0.546099 5.71737 
1110 2 -5.11975 -0.0709674 -4.97481 
771 1 -4.06062 -0.659429 -5.84372 
1111 2 -4.37392 0.138973 -4.583 
833 1 -3.26684 -0.342088 -5.62606 
212 1 -2.07156 0.390777 -5.67533 
1154 2 -1.20085 -0.448895 -5.60772 
827 1 -1.32944 0.707917 -5.38782 
769 1 -1.90835 0.147117 -4.76703 
1713 2 -1.84234 -0.580265 5.81922 
1414 2 -0.463682 -0.426589 -4.94162 
1500 2 0.097299 -0.00521402 -5.75543 
254 1 -0.997128 0.345705 -4.68166 
1570 2 0.953533 0.341812 -5.53719 
1210 2 2.18676 0.659989 -5.40238 
1963 2 1.83305 0.0242799 -3.91848 
768 1 2.30293 -0.403587 -5.59845 
916 1 2.83306 -0.488248 -4.83782 
866 1 4.46471 0.205167 -5.36748 
581 1 3.17705 -0.0819738 -5.64425 
560 1 3.71513 -0.198983 -5.07369 
1725 2 -5.96323 -0.390557 -4.72783 
1982 2 5.15281 -0.704894 -5.20314 
299 1 5.78774 0.743029 -4.8186 
1118 2 4.30196 -0.701298 5.9436 
195 1 5.28999 0.822146 -5.58711 
109 1 -5.05862 1.5486 -5.92267 
190 1 -4.66581 1.37832 -5.02975 
656 1 -4.23244 1.77234 -5.92884 
689 1 -3.80227 1.86916 -5.2546 
1224 2 -4.54493 0.372406 -5.50993 
1498 2 -3.35179 1.08805 -5.76804 
1343 2 -2.90515 0.928122 -4.93808 
1063 2 -2.44531 1.42946 -5.58325 
1256 2 -1.94225 1.32777 -4.86542 
1945 2 -0.743025 2.13092 -5.91557 
1058 2 -1.6352 1.94094 -5.70542 
482 1 0.271571 1.42138 -5.97387 
401 1 -0.389854 0.935701 -5.39478 
80 1 -0.1993 0.66985 -4.58488 
63 1 0.513093 1.19836 -5.07733 
1021 1 1.25054 1.27677 -4.63932 
1502 2 3.17708 0.792613 -5.23061 
380 1 1.93151 1.60643 -5.09529 
1572 2 2.42354 0.359259 -4.55138 
1180 2 3.85092 1.20469 -5.31207 
1762 2 4.36385 1.63076 5.89753 
715 1 -5.46002 1.10177 -5.14249 
1953 2 4.57758 1.35836 -4.86779 
469 1 5.4836 0.934723 5.46529 
1412 2 5.74346 2.06682 -5.14672 
1810 2 -5.5537 2.43652 -5.69489 
1938 2 -5.04318 2.34493 -4.869 
1800 2 -4.82057 2.84056 -5.68434 
752 1 -2.98692 2.04373 -4.92866 
1431 2 -4.23099 2.88804 -4.94414 
1482 2 -3.13902 3.2707 -5.11545 
491 1 -2.31035 2.18666 -4.3093 
815 1 -2.03196 2.72245 -5.17679 
1959 2 -3.49259 2.81174 -4.53191 
619 1 -0.811961 3.29329 -5.48124 
950 1 -0.509765 3.43584 5.45485 
885 1 -0.42852 2.74689 -4.34563 
1130 2 0.588283 2.42957 -5.7864 
1628 2 1.53929 3.04346 -5.5892 
1979 2 1.13943 2.42687 -4.92667 
1707 2 0.988836 3.12466 5.65376 
2020 2 1.89566 2.69571 -4.7156 
382 1 3.19106 2.56256 -5.92573 
1011 1 2.90601 1.95136 -5.14438 
895 1 3.76014 2.29584 -5.15568 
574 1 3.99939 2.64306 -5.80058 
882 1 5.05952 2.41579 -4.05264 
188 1 5.727 2.89124 -4.47342 
1877 2 5.00028 1.8542 -5.47492 
869 1 4.85366 2.76013 -5.05859 
676 1 -5.52901 3.2931 -4.77202 
762 1 5.4966 3.27173 -5.16117 
923 1 -4.281 3.87744 -4.9652 
755 1 -5.14966 3.78311 -5.44427 
250 1 -3.93948 4.23169 -5.62738 
323 1 -3.36648 4.3802 -4.80973 
989 1 -3.13293 4.83174 -5.74403 
1175 2 -2.32099 3.61294 -4.93827 
1934 2 -2.03518 3.84544 -5.67317 
1378 2 -1.54499 3.82104 -4.63297 
1596 2 0.611 4.48854 -4.5426 
1336 2 -1.08565 4.23199 -5.41916 
76 1 -0.108039 3.31239 -5.12077 
852 1 0.966902 3.88474 -5.59534 
56 1 1.7395 4.08035 -5.07612 
777 1 2.63036 4.19223 -4.9394 
1342 2 2.32277 3.08836 -5.38093 
501 1 1.66644 4.36539 5.78399 
1146 2 3.25076 3.40744 -5.43291 
18 1 2.49706 4.70704 -5.77016 
1640 2 4.5761 4.26626 -5.44769 
1969 2 3.91754 3.9822 5.76045 
1779 2 5.2801 4.14808 -4.7568 
1618 2 5.36845 4.40908 -5.63989 
1376 2 4.85509 4.50798 5.52449 
1088 2 -5.01165 4.73907 -4.97274 
1417 2 -5.65613 4.59864 -5.61336 
699 1 5.7785 5.73263 -5.70684 
1207 2 5.91237 4.85932 5.41533 
1365 2 -4.97081 5.12476 -5.82462 
1527 2 -4.3641 5.22023 -5.28795 
221 1 -2.47723 4.64519 -4.91098 
1510 2 -3.26705 5.40511 -4.97014 
1127 2 -2.84927 5.4254 -4.27164 
146 1 -2.19155 4.91141 -5.65195 
751 1 -1.74047 4.63524 -4.16815 
797 1 -1.63319 5.09984 -4.99092 
577 1 -0.866507 5.15065 -4.59952 
350 1 0.340975 5.72479 -5.15619 
340 1 -0.565103 5.46636 -5.26691 
1480 2 1.45976 5.235 -5.88494 
1824 2 0.0801198 4.66612 -5.49255 
1593 2 0.918172 4.95461 -5.31225 
2042 2 1.00454 5.72792 5.41217 
1145 2 2.10819 5.52782 -5.30824 
1847 2 3.04679 5.91587 -5.30214 
1002 1 3.34283 4.8237 5.98717 
262 1 4.18282 5.06456 -4.78225 
437 1 4.11058 5.15972 -5.83916 
166 1 5.0009 5.45946 -5.36448 
473 1 5.09246 5.6904 5.71362 
835 1 5.88354 5.38833 -4.93431 
1612 2 -5.12822 -5.30184 -3.85451 
1203 2 -4.892 -5.53907 -2.87549 
1126 2 -5.78863 -5.58539 -3.33067 
2000 2 -4.39387 -4.80897 -3.69889 
5 1 -3.19035 -5.52625 -4.18463 
1425 2 -3.60639 -4.51086 -3.86225 
467 1 -2.25417 -5.09556 -4.1092 
147 1 -2.90799 -5.60122 -3.3482 
1353 2 -1.65296 -5.85415 -4.43818 
765 1 -1.33837 -4.91319 -3.7319 
107 1 -0.43793 -4.81851 -3.33707 
1928 2 -0.7692 -5.64186 -3.98682 
1571 2 -0.242841 -5.0625 -4.92216 
1199 2 0.077445 -5.43686 -4.30307 
1563 2 1.57589 -4.85695 -4.05322 
959 1 1.55156 -5.71129 -4.69863 
673 1 2.63589 -5.28583 -4.83681 
64 1 3.25544 -5.49227 -3.89536 
1198 2 2.21032 -4.92424 -3.40814 
43 1 2.298 -5.72834 -4.06172 
931 1 4.11445 -5.06679 -3.55804 
19 1 3.92479 -5.34123 -2.8286 
1931 2 -5.94828 -5.40344 -4.17911 
131 1 4.86661 -4.8409 -3.49053 
75 1 -4.54446 -3.83252 -3.60155 
251 1 -5.17267 -4.31239 -3.37985 
218 1 -4.67679 -3.58375 -4.44792 
465 1 -3.64003 -3.56977 -3.39957 
1617 2 -2.54894 -4.09391 -4.19993 
1046 2 -2.63309 -4.31159 -3.39477 
1773 2 -3.32291 -4.2155 -4.45808 
1630 2 -2.14061 -3.77756 -4.8684 
1197 2 -1.77525 -3.92133 -3.64253 
1711 2 -1.07751 -3.60201 -4.10914 
855 1 -0.672226 -4.41273 -4.31336 
416 1 0.0710276 -4.38903 -3.88849 
938 1 1.00649 -3.83362 -3.76167 
20 1 1.51354 -3.54237 -4.73166 
661 1 1.61253 -3.88435 -3.07672 
1260 2 2.26031 -4.45375 -4.16041 
1019 1 2.71764 -3.41187 -3.56658 
1528 2 3.21711 -4.02824 -4.43736 
2019 2 3.06262 -4.42247 -3.579 
1592 2 4.07951 -3.81753 -4.43381 
242 1 5.21918 -4.5321 -4.16417 
339 1 5.89735 -4.483 -3.62423 
1995 2 4.87151 -3.64226 -4.0225 
1657 2 5.48068 -3.56812 -3.25859 
1465 2 -4.79808 -2.95662 -3.29241 
1664 2 -3.97423 -2.30861 -3.73771 
1871 2 -5.59937 -3.04103 -3.88884 
140 1 -5.40893 -1.98283 -3.14719 
196 1 -3.77689 -3.16014 -4.30248 
1902 2 -4.01383 -2.60337 -2.84583 
1908 2 -3.35331 -2.2871 -3.34699 
622 1 -2.92431 -3.22849 -3.79476 
753 1 -2.3193 -2.86572 -4.24638 
677 1 -1.41798 -2.67143 -3.80988 
411 1 -1.98261 -2.97693 -3.21715 
1602 2 -0.423417 -2.97849 -4.70472 
1991 2 -0.234916 -3.31582 -3.71449 
1848 2 0.407055 -2.87991 -4.07311 
597 1 0.10894 -1.96136 -3.67242 
1580 2 1.72565 -2.64018 -3.48277 
1894 2 0.878116 -2.93193 -3.13055 
1263 2 2.5723 -2.30414 -3.5426 
136 1 1.80402 -3.60408 -3.90591 
33 1 4.47645 -2.49954 -4.24742 
639 1 3.52104 -2.83243 -4.24649 
385 1 4.35474 -2.75356 -3.51872 
1750 2 5.48078 -3.08779 -4.20849 
475 1 5.38243 -2.05938 -4.44322 
550 1 5.55918 -2.30716 -3.54631 
784 1 -5.42471 -1.69653 -3.81272 
1350 2 -5.37328 -0.744429 -3.41158 
1867 2 -3.75039 -1.92955 -4.59587 
161 1 -4.0819 -0.988987 -4.17004 
948 1 -3.35486 -1.03021 -3.59489 
1243 2 -2.3642 -1.37482 -4.66673 
1097 2 -3.05755 -1.8745 -4.1173 
1345 2 -1.67923 -1.43223 -4.04284 
117 1 -2.59593 -0.969149 -3.62837 
1355 2 -1.50317 -0.779897 -4.76148 
1573 2 -1.64784 -1.71963 -3.1408 
1804 2 0.0673815 -0.69606 -4.07692 
313 1 0.656571 -1.58405 -4.47798 
599 1 -0.658651 -1.95134 -4.34716 
1870 2 -0.89581 -0.949456 -4.04417 
1635 2 0.140729 -0.990349 -3.23178 
657 1 0.938648 -1.66351 -3.64328 
421 1 1.38345 -1.18807 -4.41066 
1946 2 2.62784 -1.89219 -4.58368 
705 1 1.94688 -1.41141 -3.62482 
691 1 2.5001 -0.977329 -4.15037 
640 1 3.09265 -0.969637 -3.52651 
1332 2 4.13694 -1.54796 -4.15491 
403 1 -5.81264 -1.50375 -4.38528 
1083 2 4.82595 -1.067 -4.35086 
1775 2 5.00803 -1.37513 -3.62228 
1163 2 5.61529 -0.704559 -4.09655 
2048 2 -5.23329 -0.345559 -4.13621 
1792 2 -4.41258 -0.24953 -3.61902 
1826 2 -4.49735 -0.64226 -2.86576 
824 1 -4.99126 0.496382 -3.42893 
1346 2 -3.82851 0.618943 -5.29954 
1754 2 -3.60125 0.00609443 -3.36473 
1736 2 -3.52471 0.340436 -4.21652 
374 1 -2.64932 -0.125062 -4.98107 
451 1 -2.13809 -0.257655 -3.90344 
505 1 -2.95844 -0.580766 -4.38802 
1876 2 -2.6617 0.452188 -3.50516 
214 1 -1.31474 -0.0532162 -3.94555 
615 1 -1.08067 -0.332825 -3.10988 
789 1 -0.366194 0.157967 -3.70923 
1644 2 1.42283 0.144865 -4.8275 
1223 2 0.516471 -0.140627 -4.83867 
1673 2 0.925764 -0.333241 -4.11039 
1832 2 1.77694 -0.481084 -3.12962 
1952 2 2.89516 0.235024 -3.76532 
758 1 3.48348 -0.631481 -4.21675 
1470 2 3.97229 0.580559 -3.57942 
42 1 4.32557 -0.107105 -4.39175 
334 1 5.0362 0.270232 -4.59442 
872 1 5.09888 0.0366641 -3.68338 
32 1 -5.85885 0.426027 -3.70277 
1728 2 -4.94319 2.08382 -3.90299 
1654 2 -5.58611 1.4067 -3.249 
1403 2 -5.68162 1.67047 -4.11158 
278 1 -5.34897 0.728824 -4.30598 
697 1 -3.7958 1.5191 -4.46675 
338 1 -4.61913 1.06081 -4.04911 
903 1 -3.84875 1.18672 -3.65368 
230 1 -4.22214 0.811139 -3.0278 
1015 1 -3.0058 1.61908 -3.97445 
1830 2 -2.46047 0.840455 -4.1547 
1298 2 -0.794454 1.89985 -5.05649 
842 1 0.499772 0.372142 -3.04761 
1769 2 0.263013 1.55478 -3.63056 
1364 2 -0.000621896 2.32054 -5.24562 
1999 2 -0.393011 1.63295 -4.22892 
517 1 0.453395 0.59927 -4.05441 
760 1 1.96208 1.19435 -3.99285 
1967 2 1.13357 1.75848 -3.32475 
1314 2 3.34876 0.492897 -4.44165 
551 1 2.60166 1.45382 -4.55086 
90 1 2.88158 1.32201 -3.60605 
1696 2 4.0325 0.955179 -4.44681 
731 1 3.65639 1.50085 -3.10205 
1777 2 4.69887 1.13472 -3.89673 
1861 2 5.29665 1.56546 -4.56332 
45 1 -5.39668 2.94725 -3.93134 
446 1 -4.97331 2.87377 -3.14661 
1512 2 -4.23628 2.39825 -4.16505 
1839 2 -4.04437 2.02533 -3.18382 
926 1 -4.38789 3.34601 -3.72373 
1794 2 -3.4494 2.58078 -3.59249 
1485 2 -2.52089 2.8599 -3.51765 
982 1 -1.67308 2.10643 -3.65067 
593 1 -1.35551 2.62659 -4.72575 
494 1 -1.43287 1.85665 -2.76794 
1142 2 -1.7496 3.32443 -3.92007 
1884 2 0.492104 2.13025 -4.44048 
208 1 -0.784351 2.46086 -3.6658 
478 1 0.34285 3.05967 -4.04998 
709 1 0.750552 3.46218 -4.69765 
1653 2 1.3514 2.16866 -4.12894 
394 1 1.02965 3.09665 -3.68309 
1461 2 2.22277 2.29622 -4.02965 
1214 2 2.84924 2.66447 -4.43965 
2039 2 3.48058 3.2118 -4.51391 
896 1 1.98238 3.33447 -3.48995 
894 1 3.43995 1.71759 -4.34143 
726 1 4.3242 2.39921 -4.52462 
631 1 4.27869 2.02825 -3.74288 
1522 2 3.99371 3.03093 -3.60888 
204 1 5.83276 2.60636 -3.48544 
7 1 5.01473 2.17677 -3.042 
1073 2 -5.80775 4.36984 -4.81265 
1278 2 -5.45774 4.18809 -4.12964 
369 1 -4.78063 3.51231 -4.38503 
1670 2 -4.52519 4.56793 -4.03121 
69 1 -3.72773 3.71983 -4.09331 
1415 2 -2.68473 3.05374 -4.31048 
460 1 -3.05065 4.13418 -4.05705 
276 1 -2.24741 4.23364 -3.48324 
17 1 -1.33202 4.53369 -3.21434 
1692 2 -0.792119 3.81102 -4.25835 
1372 2 -0.276644 4.26535 -4.82929 
1607 2 -0.142336 4.00219 -3.75343 
2040 2 0.985443 4.38531 -3.7502 
448 1 1.51077 3.60364 -4.35131 
653 1 2.33533 3.64022 -4.19486 
407 1 3.40129 4.73213 -5.17973 
256 1 3.22246 3.95156 -3.6181 
1274 2 4.21812 3.61683 -5.13279 
775 1 3.4482 4.38833 -4.45738 
1439 2 5.70031 3.367 -2.82753 
1562 2 4.598 3.48867 -4.32428 
1349 2 5.48974 3.79437 -3.82589 
1977 2 4.8444 3.2908 -3.37812 
143 1 4.20483 4.52142 -3.99421 
825 1 -5.2584 5.88045 -4.98128 
662 1 -4.96133 5.79525 -4.13191 
946 1 -5.8743 5.34331 -3.97483 
453 1 -3.78647 -5.90668 -3.40121 
1413 2 -3.70926 4.98357 -3.70911 
805 1 -4.49164 -5.60021 -5.08926 
1048 2 -4.05943 5.13095 -4.61093 
1757 2 -2.77703 5.13663 -3.4161 
871 1 -1.02425 4.79396 -3.89435 
1575 2 -2.05962 5.56042 -3.76193 
836 1 -0.235407 4.9932 -3.65953 
638 1 -0.0644557 5.34307 -4.3781 
123 1 0.558715 5.32732 -3.46716 
428 1 0.993178 5.5652 -4.31214 
1033 2 1.69904 4.91862 -4.68212 
1013 1 1.69292 5.68812 -3.83388 
1093 2 2.53649 5.17806 -4.41283 
1499 2 1.89976 4.64041 -3.84866 
1875 2 3.39839 5.7424 -4.61605 
1846 2 4.23981 -5.89988 -4.27203 
432 1 4.95948 5.17803 -4.47077 
1764 2 2.85874 4.90078 -3.62125 
1090 2 5.19347 -5.82198 -3.804 
370 1 5.15158 4.81734 -3.61992 
1418 2 -5.05077 5.91517 -2.13514 
1604 2 -4.2848 -5.50214 -2.21123 
1272 2 -4.01748 -5.02516 -2.96096 
1261 2 -3.51881 -5.16843 -2.03363 
1534 2 -3.21999 -4.76631 -3.03759 
1008 1 -3.33922 5.78221 -2.58884 
1285 2 -2.6848 -4.8023 -2.35075 
860 1 -2.56478 -5.81227 -2.47138 
497 1 -2.05557 -5.4374 -3.28979 
902 1 -1.39885 -5.11656 -2.92355 
326 1 -1.54468 -5.6006 -2.20366 
1503 2 0.233962 -5.6937 -3.48465 
459 1 0.130789 -4.78645 -2.58103 
1338 2 0.883914 -5.27537 -3.94028 
1828 2 1.9572 -5.32466 -2.53844 
1344 2 1.37842 -5.22583 -3.24417 
1611 2 1.44886 -5.65348 -2.08832 
1081 2 2.81927 -5.1148 -1.82863 
2004 2 2.63013 -4.89294 -2.5922 
667 1 3.1937 -5.56551 -3.09717 
586 1 3.68261 -5.82968 -2.15651 
1765 2 3.56798 -4.4408 -2.7315 
955 1 4.82613 -5.33704 -2.59657 
284 1 5.70165 -4.84281 -2.71704 
153 1 5.42965 -5.41155 -1.9037 
802 1 -5.71914 -5.02772 -2.01815 
1817 2 -5.56665 -3.36846 -3.14357 
2010 2 -5.52286 -3.61293 -2.09929 
273 1 -4.23194 -4.12774 -2.65469 
1655 2 5.54956 -3.83636 -2.3142 
798 1 -4.38586 -4.53289 -1.84545 
504 1 -3.5434 -4.103 -1.88607 
1548 2 -2.059 -4.30346 -2.76733 
524 1 -3.34573 -3.61755 -2.6131 
441 1 -2.56741 -3.78155 -1.89923 
1783 2 -1.31606 -4.25862 -2.36771 
1079 2 -0.881308 -3.85591 -3.15033 
1231 2 -0.485442 -3.92849 -2.28188 
249 1 0.728742 -4.43597 -3.2001 
1613 2 0.5142 -3.79843 -2.09195 
85 1 1.423 -4.36335 -2.45128 
981 1 2.43747 -3.83241 -2.87313 
1973 2 1.5947 -3.54187 -1.60818 
328 1 2.8967 -3.81155 -2.27145 
522 1 3.19625 -4.00044 -1.40404 
569 1 2.17631 -4.23996 -1.9282 
1232 2 3.86248 -4.04783 -3.45984 
1737 2 4.29411 -4.41332 -2.15013 
100 1 3.4851 -3.33952 -2.3955 
1836 2 4.6151 -3.95216 -2.93204 
471 1 -5.12493 -2.29774 -2.14263 
1911 2 -3.12267 -2.68223 -2.25701 
1545 2 -4.59496 -3.15214 -2.40926 
1537 2 -2.59994 -2.1345 -2.75418 
269 1 -2.67117 -3.22358 -2.86938 
1781 2 -1.77336 -2.16264 -2.39725 
844 1 -0.642084 -2.31543 -3.43613 
816 1 -1.84116 -3.29018 -2.34974 
986 1 -1.06798 -2.84181 -2.87375 
1457 2 0.304516 -3.47901 -2.74537 
388 1 -0.15601 -2.45605 -2.70149 
1923 2 2.00136 -2.73972 -2.63008 
199 1 1.19885 -2.17354 -2.14635 
1942 2 1.25544 -3.23854 -2.35405 
1738 2 3.22155 -1.88514 -3.76557 
1947 2 2.70512 -2.44462 -2.64623 
1001 1 3.45378 -3.02029 -3.31713 
1259 2 3.52593 -1.94196 -2.93223 
1641 2 4.0457 -2.17405 -2.18622 
928 1 4.27267 -2.99578 -2.5769 
914 1 5.11584 -2.63602 -2.91919 
754 1 5.92653 -2.47497 -2.57377 
311 1 5.21037 -2.98059 -1.89624 
636 1 -4.69403 -1.72493 -2.7893 
1128 2 5.76224 -1.39578 -2.26969 
344 1 -4.16151 -1.91032 -2.19207 
2035 2 -5.40893 -0.991595 -2.5688 
1634 2 5.70959 -1.1034 -3.30358 
592 1 -4.52332 -1.48016 -3.65585 
917 1 -3.72268 -1.41533 -2.91967 
99 1 -3.29419 -1.42087 -2.29268 
1972 2 -4.62778 -0.889753 -2.06055 
1296 2 -2.37879 -2.05869 -3.59728 
499 1 -1.81857 -0.953208 -2.33483 
717 1 -2.60723 -1.05367 -2.72551 
1456 2 -0.973616 -1.74079 -2.37156 
234 1 -1.39556 -1.06928 -1.53934 
1517 2 -0.791691 -1.27873 -3.22021 
1682 2 -0.0402983 -1.45644 -2.43698 
287 1 1.45732 -1.54473 -2.95548 
998 1 0.647962 -2.03437 -2.84701 
1057 2 0.825515 -0.929566 -2.38216 
1819 2 1.79959 -0.571176 -2.23607 
377 1 2.52383 -1.23056 -2.90367 
867 1 2.05553 -1.70508 -2.23866 
116 1 3.15811 -1.17085 -2.34898 
1645 2 4.20873 -1.63743 -3.22503 
700 1 4.10458 -0.556288 -3.57615 
198 1 3.96395 -0.77854 -2.72846 
846 1 4.46705 -0.971609 -2.04575 
1299 2 4.84475 -1.72205 -2.56142 
900 1 5.79091 -0.109121 -2.96703 
297 1 -5.59477 -0.13907 -2.02075 
912 1 -5.19841 0.121257 -2.72869 
1206 2 -3.71571 -0.410739 -2.5327 
1184 2 -2.93116 -0.110113 -2.89206 
94 1 -4.57374 0.30793 -2.35458 
1104 2 -2.0259 0.431897 -2.90863 
1962 2 -0.769844 1.18717 -3.47784 
848 1 -2.00302 -0.607365 -3.12228 
1550 2 -1.64628 0.960632 -3.72575 
886 1 -0.917736 -0.607068 -2.14857 
1643 2 -1.13394 0.82952 -2.81702 
704 1 -0.106678 -0.363822 -2.1197 
594 1 -0.199764 -0.0844979 -2.89932 
121 1 0.757964 0.0522396 -2.09482 
1436 2 -0.481213 0.743119 -2.30852 
1568 2 0.897557 -0.631351 -3.279 
749 1 1.28828 0.403422 -2.98333 
1916 2 2.65687 -0.263258 -2.06304 
1529 2 2.58952 -0.202221 -3.05828 
2008 2 3.44563 0.183926 -2.83194 
1220 2 4.40215 0.230002 -2.28583 
125 1 4.81695 -0.444279 -2.98276 
241 1 5.27365 -0.447919 -2.22543 
1803 2 -4.84878 1.72595 -3.04395 
1986 2 -5.75015 1.0148 -2.57911 
1720 2 -4.14671 1.68442 -2.31329 
613 1 -3.51297 0.768777 -2.54155 
310 1 -2.40596 1.61387 -3.21125 
164 1 -3.14167 1.297 -3.06419 
686 1 -2.61342 1.04993 -2.32335 
2021 2 -3.31073 1.84334 -2.03402 
2001 2 -1.20934 1.40444 -4.46649 
585 1 -1.96549 1.45658 -2.30292 
301 1 -1.21031 1.67736 -1.99363 
823 1 -0.372117 1.81269 -2.07753 
1054 2 -0.150054 1.07331 -2.8904 
447 1 1.29209 0.857667 -3.70834 
1642 2 0.750599 1.38186 -2.65591 
1158 2 1.62777 1.5319 -2.52668 
408 1 2.1578 0.923055 -3.08553 
171 1 2.83391 1.21395 -2.63281 
621 1 3.7077 1.05815 -2.31574 
1172 2 4.48448 0.676285 -3.01573 
702 1 4.45138 1.64477 -2.72051 
2030 2 5.22569 0.490218 -1.92175 
1320 2 5.35828 0.88251 -2.66778 
1361 2 5.30622 1.18255 -3.46651 
95 1 4.9165 1.5145 -1.83719 
298 1 -5.77261 2.45966 -2.81685 
761 1 -5.05544 2.58073 -2.29694 
966 1 -4.6365 2.26236 -1.65379 
1092 2 -3.34997 2.29729 -2.82637 
322 1 -4.12353 3.18652 -3.03679 
1268 2 -1.57163 2.98095 -3.02529 
1689 2 -2.5154 2.40848 -2.60686 
1625 2 -1.03229 3.5208 -3.42885 
1304 2 -1.93013 2.66499 -2.157 
1247 2 -0.860694 3.11793 -2.40655 
719 1 -0.600959 2.11332 -2.86713 
561 1 0.13745 2.59851 -3.28531 
552 1 1.10527 2.77655 -2.78816 
1105 2 3.1102 2.64504 -3.60178 
1825 2 2.43103 1.95362 -2.15086 
1994 2 2.08468 2.1362 -3.18356 
747 1 1.97562 3.03796 -2.52665 
1786 2 3.84801 2.61688 -2.97789 
1065 2 3.02795 2.19672 -2.82133 
351 1 -5.6181 1.97693 -2.0452 
811 1 5.48656 1.84964 -2.46093 
1686 2 4.12126 2.60729 -2.09589 
1026 2 4.8351 3.04508 -2.50441 
1554 2 5.64414 2.9591 -1.97201 
1636 2 -5.59282 3.91176 -3.43044 
1333 2 -5.30589 3.75907 -2.67245 
355 1 -5.65861 4.52119 -2.17005 
381 1 -3.35764 3.59178 -3.17174 
1971 2 -4.62223 4.13505 -2.40898 
1662 2 -4.79806 4.36598 -3.28474 
1287 2 -3.80922 4.31315 -2.06542 
772 1 -2.56907 3.71799 -2.98599 
16 1 -3.33314 3.26698 -2.30988 
568 1 -1.79963 3.9302 -2.5186 
26 1 -2.48199 3.43203 -2.03941 
733 1 -1.01266 4.05809 -1.9727 
418 1 -1.24128 3.70568 -0.954828 
361 1 -0.754207 4.34718 -2.64652 
1668 2 0.579078 3.88259 -3.09664 
1756 2 -0.188657 3.51113 -2.93969 
1183 2 0.209145 3.44483 -2.20511 
165 1 0.0322725 4.43651 -1.99716 
1869 2 1.06368 3.78664 -2.26353 
1926 2 2.02071 4.13683 -2.18458 
1267 2 1.61001 4.26848 -3.05879 
1042 2 2.42238 4.58638 -2.9423 
937 1 2.74504 3.50584 -3.08953 
1161 2 2.92027 4.42573 -2.2742 
34 1 3.93235 4.10646 -3.15585 
181 1 4.75602 4.19988 -2.90874 
906 1 3.56124 3.56902 -2.61646 
918 1 5.77747 4.6313 -2.91975 
258 1 5.25352 4.13616 -2.07358 
443 1 -5.52215 5.14422 -3.22846 
579 1 -4.66776 5.50934 -3.34611 
2016 2 -5.77269 5.76295 -2.48838 
1072 2 -3.96162 4.44988 -2.9356 
589 1 -3.97291 5.10653 -1.75081 
119 1 -4.23908 5.37849 -2.50393 
1014 1 -3.15813 5.39554 -1.77972 
1419 2 -3.04216 4.77245 -2.74417 
1601 2 -2.28823 4.8244 -2.16502 
1191 2 -2.03395 5.26318 -2.87246 
1957 2 -1.21875 5.40692 -2.48355 
1543 2 -1.38272 5.67657 -3.4371 
612 1 -0.0547524 4.8238 -2.76061 
564 1 0.850783 4.8798 -1.91973 
1818 2 -0.624375 5.82564 -3.07964 
41 1 1.4994 5.5362 -2.98304 
487 1 2.34447 5.76969 -3.14683 
1234 2 3.70641 4.75749 -1.88615 
182 1 2.96125 5.85795 -2.49784 
1854 2 3.3618 5.00998 -2.89899 
1318 2 3.87376 5.43601 -3.66428 
1405 2 4.13161 5.14355 -2.60804 
1362 2 5.62945 5.34722 -1.8066 
1100 2 4.60357 5.73852 -3.34888 
2034 2 5.47611 5.76432 -3.05938 
878 1 -5.26413 -4.55943 -2.50348 
666 1 -4.58512 -5.06111 -0.788284 
864 1 -5.09061 -5.00381 -1.40637 
1633 2 -4.48397 -5.91119 -1.45605 
1312 2 -3.55401 -5.82541 -1.18833 
366 1 -4.26767 -5.27463 -0.14954 
1047 2 -2.80333 -5.2322 -1.41088 
1807 2 -1.93073 -5.03409 -0.979943 
260 1 -0.860403 -5.49022 -1.60761 
1452 2 -1.12458 -4.85331 -0.829335 
531 1 -1.43123 5.91368 -1.22475 
295 1 -0.578978 -5.14013 -2.4201 
954 1 0.711729 -4.82981 -1.901 
229 1 0.0386196 -5.29183 -1.72243 
934 1 0.64891 -5.22177 -1.0419 
678 1 1.4326 -4.7327 -1.59229 
1189 2 1.19763 5.83385 -1.2962 
2017 2 2.2126 -5.66911 -1.55303 
1530 2 3.6472 -4.92129 -1.77071 
1767 2 3.13274 -5.44174 -1.10439 
1129 2 4.38423 -5.03299 -1.45907 
1749 2 2.77873 -5.8116 -0.571563 
847 1 4.49251 -5.85836 -1.82333 
1471 2 4.63565 -4.81309 -0.675152 
542 1 5.185 -5.77612 -1.18867 
1948 2 -5.8307 -4.08099 -1.49885 
1201 2 -5.18629 -4.02703 -0.870573 
991 1 -3.84181 -4.70514 -1.08903 
1851 2 -4.65716 -3.62552 -1.47942 
246 1 -3.36886 -4.72895 -0.479441 
71 1 -2.94567 -4.30435 -1.07986 
634 1 -1.91008 -3.72874 -1.43532 
1394 2 -1.90406 -4.83666 -1.68239 
1477 2 -1.01438 -4.4588 -1.624 
1753 2 -0.0259827 -4.1517 -1.48149 
1280 2 -0.175745 -4.57702 -0.830905 
526 1 -0.431978 -3.27708 -1.06315 
1586 2 2.05871 -3.57447 -0.865051 
1896 2 0.68621 -3.94969 -1.30612 
245 1 2.51058 -4.4793 -1.19647 
137 1 3.13756 -4.42401 -0.49769 
1770 2 2.8186 -3.07265 -1.05383 
321 1 3.96803 -3.73531 -1.423 
602 1 4.95358 -3.60228 -1.13631 
606 1 3.96233 -4.04994 -0.721612 
1844 2 5.17933 -4.37083 -1.92691 
1521 2 5.17807 -4.64605 -1.15191 
352 1 4.47544 -3.39251 -1.88732 
968 1 -5.73229 -2.73746 -1.65959 
734 1 -3.7215 -2.1227 -1.39521 
58 1 -5.18903 -2.82125 -0.923368 
532 1 -4.59223 -2.37396 -1.42661 
1442 2 -3.94746 -3.12211 -1.72345 
291 1 -3.48126 -2.23717 -0.64043 
2007 2 -3.44101 -3.37272 -0.990586 
1478 2 -2.76223 -2.92467 -1.34686 
682 1 -2.57581 -1.98102 -0.669719 
1069 2 -2.32918 -2.99207 -0.565745 
1993 2 -2.30267 -2.40265 -1.924 
1289 2 -1.15456 -2.10805 -1.6871 
1077 2 -1.76614 -2.55857 -1.07098 
398 1 -1.20225 -3.2356 -1.80363 
1950 2 -0.774445 -2.3113 -0.789797 
324 1 -0.482015 -2.90154 -1.90721 
573 1 0.41492 -2.96968 -1.03469 
11 1 0.453712 -2.6772 -1.85128 
1883 2 0.0202164 -2.04224 -0.780835 
566 1 1.25427 -2.58186 -1.18631 
1787 2 3.0354 -2.64156 -1.86836 
1066 2 2.26949 -3.081 -1.95318 
215 1 3.15082 -1.89836 -0.900985 
106 1 2.02241 -2.13276 -1.37874 
1167 2 4.48676 -2.37672 -1.52495 
1708 2 3.74592 -2.79795 -1.22158 
1148 2 4.41153 -2.86233 -0.493979 
213 1 5.70613 -3.11118 -1.10113 
1393 2 5.00178 -2.3332 -0.781783 
1352 2 -4.99383 -1.3871 -0.940468 
1978 2 -5.47996 -1.52064 -1.74022 
1174 2 -4.27288 -1.17259 -1.37521 
1310 2 -3.66713 -0.707764 -1.7093 
767 1 -2.93436 -1.80177 -1.373 
548 1 -1.95616 -1.61722 -1.06264 
37 1 -2.2836 -1.40883 -1.79586 
963 1 -0.42181 -0.964364 -1.17203 
898 1 -1.16217 -1.3848 -0.671039 
419 1 0.0570459 -1.09277 -0.307188 
1086 2 -0.202479 -1.74878 -1.63315 
1808 2 0.706309 -1.41894 -1.5428 
2046 2 1.50017 -0.983449 -1.58892 
1360 2 1.78724 -1.25689 -0.797234 
1659 2 0.802283 -1.6413 -0.78831 
1680 2 2.33061 -0.660283 -1.33438 
626 1 2.76174 -1.68336 -1.58657 
629 1 3.78649 -1.28833 -1.60953 
1505 2 3.23886 -0.520995 -1.04139 
983 1 3.95111 -1.72293 -0.732551 
1279 2 5.20935 -1.93272 -1.65029 
1237 2 5.84362 -1.91352 -1.15991 
518 1 4.81523 -1.07594 -1.20491 
279 1 5.63335 -0.950674 -0.662386 
818 1 -4.70133 0.00652581 -1.54406 
692 1 -5.42004 -0.409521 -1.22825 
1724 2 -5.3071 0.702251 -0.882905 
876 1 -4.69085 -0.279994 -0.637519 
1229 2 -4.82992 0.989378 -1.60194 
1589 2 -2.88469 -0.377577 -1.86341 
259 1 -3.05457 0.33185 -0.831626 
921 1 -3.94015 0.106847 -1.03703 
189 1 -2.15963 0.414328 -0.499707 
1834 2 -1.99104 -0.034568 -2.09683 
1432 2 -2.36858 -0.546814 -1.25992 
1893 2 -1.56785 -0.0564292 -1.10605 
2043 2 -1.3261 0.420461 -2.01056 
1098 2 -1.32731 -0.556909 -0.0163703 
1761 2 -2.10963 -0.699567 -0.526089 
776 1 0.395025 -0.374659 -1.46226 
625 1 0.654534 -0.549529 -0.769639 
1187 2 -0.232338 0.501825 -1.30378 
50 1 1.57865 0.371252 -2.08959 
874 1 1.34089 0.0130125 -1.1326 
870 1 2.19108 0.286053 -1.24542 
232 1 2.43364 0.630495 -2.0382 
837 1 2.92877 0.379293 -0.852254 
1468 2 3.58238 -0.149911 -1.96556 
2027 2 4.08979 -0.396508 -0.676889 
1858 2 4.29415 0.0141974 -1.46241 
464 1 3.73768 0.545283 -0.332223 
654 1 5.59551 -0.652185 -1.42317 
1059 2 4.97771 0.194727 -1.07475 
1564 2 5.75171 0.431134 -0.961844 
557 1 5.70112 1.51489 -1.26992 
2038 2 -5.78042 0.716188 -1.65618 
1282 2 -4.81369 1.34856 -2.35952 
1520 2 -3.7049 1.26529 -0.755168 
1162 2 -3.92462 1.33016 -1.60888 
489 1 -3.85 0.379856 -1.89399 
397 1 -3.04436 0.695894 -1.73644 
2047 2 -3.20059 1.70385 -1.30668 
134 1 -1.74486 1.18863 -1.39347 
115 1 -2.29803 0.761143 -1.27217 
240 1 -0.477164 1.5536 -1.20587 
1683 2 0.361779 0.98846 -2.00331 
910 1 -1.09108 0.884832 -0.870784 
44 1 0.259952 2.08158 -1.41432 
1050 2 1.02952 1.35058 -1.71696 
1297 2 1.88486 1.52079 -1.67611 
1386 2 0.620478 0.796488 -0.99659 
1340 2 3.33878 1.77913 -0.648268 
1712 2 2.80214 1.66454 -1.36968 
243 1 3.19956 0.730656 -1.75079 
944 1 4.16855 1.28496 -1.73594 
110 1 3.85584 0.829514 -1.03262 
1134 2 3.41489 2.11942 -1.99014 
1879 2 4.12325 1.7053 -0.100453 
194 1 4.81231 1.16695 -0.907966 
1003 1 -5.28664 1.96073 -1.23808 
1669 2 -5.50841 2.85236 -0.890078 
294 1 -4.0975 2.37665 -1.09535 
879 1 -4.21776 2.85209 -2.29051 
925 1 -3.39564 2.65807 -0.702683 
520 1 -3.66838 2.74996 -1.65705 
1679 2 -2.54059 2.24938 -1.74188 
720 1 -2.44981 2.94793 -0.432378 
111 1 -2.82364 3.0397 -1.24991 
1981 2 -1.7408 2.32343 -1.2927 
1616 2 -1.25528 2.73355 -1.73914 
1983 2 -0.802093 2.53016 -0.84278 
1727 2 -2.46033 1.87456 -0.903698 
1071 2 -0.468208 2.99009 -1.6382 
660 1 0.352111 2.35122 -2.36024 
843 1 1.16384 2.48633 -1.86661 
114 1 1.2133 2.34007 -1.07875 
1974 2 0.612177 2.96618 -0.418815 
828 1 3.0238 3.19604 -2.14437 
945 1 1.96721 2.68408 -1.63582 
183 1 2.01245 2.24349 -0.714891 
510 1 2.79708 2.73384 -1.21212 
1368 2 3.91288 2.11268 -1.204 
582 1 3.69741 3.36548 -1.51419 
1399 2 5.67208 2.53004 -1.06008 
1866 2 5.01515 2.57726 -1.63871 
1276 2 4.85908 2.22879 -0.664763 
1811 2 -5.4949 3.34236 -1.82171 
1330 2 -4.69122 3.60022 -1.66913 
506 1 -5.79225 4.12069 -1.27283 
1056 2 -3.8773 3.78998 -1.13421 
1335 2 -2.98988 4.09982 -1.01761 
1814 2 -2.5421 3.93835 -0.20931 
516 1 -1.71236 3.8007 -1.61616 
86 1 -2.01977 3.33706 -1.04099 
627 1 -0.463025 4.02911 -1.25146 
905 1 0.385385 4.42711 -1.17087 
1997 2 0.630014 3.3512 -1.3484 
1913 2 1.5418 3.76673 -1.43875 
1428 2 2.36937 3.83929 -1.51458 
1842 2 3.23486 4.22177 -1.27897 
650 1 4.36459 3.8188 -2.15024 
1221 2 4.03327 4.09356 -0.209372 
1178 2 4.12905 4.4815 -0.90906 
952 1 5.26647 3.71911 -1.37385 