ITEM: TIMESTEP
1200
ITEM: NUMBER OF ATOMS
2048
ITEM: BOX BOUNDS pp pp pp
-5.9551418562316618e+00 5.9551418562316618e+00
-5.9551418562316618e+00 5.9551418562316618e+00
-5.9551418562316618e+00 5.9551418562316618e+00
ITEM: ATOMS id type x y z 
1849 2 -5.57961 -4.92243 -5.33394 
514 1 -5.24072 -5.73214 -5.88017 
14 1 -4.50693 -5.57709 -5.54598 
29 1 -3.56579 -5.31334 -5.32087 
554 1 -4.47079 5.99146 -4.80349 
3 1 -2.74668 -4.93449 -5.18581 
1365 2 -2.50781 -5.77158 -5.71123 
855 1 -1.98487 -4.63628 -4.99476 
1151 2 -1.59299 -5.58041 -5.35495 
1291 2 -0.693334 -5.29383 -5.35904 
1526 2 -1.70659 5.93743 -4.78988 
1029 2 0.0454456 -4.89176 -5.17504 
1260 2 0.728434 -4.84084 -4.87032 
959 1 1.13947 -5.82734 -5.37595 
673 1 2.04139 -5.53558 -5.2038 
931 1 2.83912 -5.17091 -4.97276 
821 1 2.81187 -4.90671 -5.88863 
57 1 3.69421 -4.87173 -4.70045 
1677 2 3.98069 -5.67278 -5.36423 
1604 2 4.73033 -5.66289 -4.86969 
434 1 3.55938 -4.59002 -5.53859 
1277 2 4.73967 -5.27251 -5.69391 
1931 2 5.47248 -5.00125 -5.61278 
1799 2 5.53059 -5.26162 -4.65897 
19 1 -5.09446 -3.61538 -4.79898 
555 1 -5.85089 -3.91852 -4.99057 
223 1 -5.9109 -3.47074 -5.75744 
373 1 -5.05757 -3.31361 -5.4439 
1661 2 -4.76484 -4.64052 -5.22794 
1548 2 -3.95605 -4.31944 -5.09154 
1103 2 -4.0715 -3.84663 -5.91168 
1046 2 -3.05142 -3.73539 -5.67797 
1663 2 -2.21251 -3.42619 -5.54348 
1261 2 -3.18985 -4.04665 -4.95422 
1402 2 -2.32988 -3.81299 -4.84525 
91 1 -0.942547 -4.01587 -5.71909 
765 1 -1.19813 -4.42095 -5.00512 
247 1 -0.17966 -3.82289 -5.48275 
902 1 0.739364 -3.62875 -5.37587 
403 1 0.371264 -3.95079 -4.65233 
2029 2 0.542852 -4.47359 5.95518 
1694 2 1.41683 -4.31235 -5.66652 
122 1 1.43334 -3.17445 -5.25498 
1705 2 1.56861 -4.5707 -4.73674 
1995 2 2.25997 -3.98146 -5.50725 
1466 2 3.38199 -3.55766 -5.89226 
1129 2 3.05717 -3.795 -5.21957 
723 1 4.3819 -4.45102 -5.09203 
1929 2 3.91984 -3.59246 -4.99122 
429 1 5.18248 -4.04522 -5.12244 
2032 2 4.72812 -3.07883 -4.73993 
1588 2 -5.52219 -2.38342 -5.20924 
1341 2 -4.77495 -2.10711 -5.11365 
878 1 -4.32891 -3.06975 -5.34855 
196 1 -3.54491 -2.82557 -5.20803 
1682 2 -3.96493 -1.90501 -4.89018 
353 1 -2.73859 -2.73487 -4.9881 
1711 2 -1.47444 -3.19125 -5.09199 
151 1 -1.99078 -2.27316 -4.95778 
1763 2 -0.706273 -2.89294 -5.24348 
1820 2 0.143234 -2.33664 -5.68277 
1255 2 0.104115 -2.66245 -4.99107 
1909 2 0.951382 -2.47501 -4.66179 
1525 2 0.915261 -2.12929 -5.53474 
202 1 2.13089 -2.76784 -5.81375 
975 1 2.83342 -2.65626 -5.3045 
694 1 2.20284 -3.26445 -4.86366 
904 1 3.42238 -2.66726 -4.57694 
1190 2 2.57931 -2.12201 -4.30942 
1722 2 4.08905 -3.18318 -5.89261 
939 1 3.62292 -2.37077 -5.58306 
406 1 4.42048 -1.96766 -5.30767 
1070 2 5.53606 -2.68006 -5.33489 
1475 2 4.82606 -2.90181 -5.75437 
1937 2 5.57248 -2.99676 -4.49828 
543 1 -5.8014 -1.43935 -4.71276 
730 1 -4.99039 -0.910987 -5.40375 
972 1 -5.92846 -1.17787 -5.59498 
717 1 -5.0184 -1.28962 -4.57427 
1904 2 -4.83873 -1.80607 -5.85977 
1635 2 -3.85259 -1.51589 -5.89211 
55 1 -4.13155 -0.677126 -5.46363 
1345 2 -2.46478 -1.12089 -5.17314 
1572 2 -1.86141 -0.972485 -5.80227 
402 1 -2.091 -1.97232 -5.68373 
1069 2 -1.51577 -0.830293 -4.9491 
11 1 -1.06714 -1.79702 -5.32659 
595 1 -0.240349 -1.42656 -5.25269 
8 1 0.508461 -1.31309 -5.20267 
581 1 1.44599 -1.07391 -4.89126 
1555 2 1.80938 -2.179 -4.80762 
2048 2 2.47202 -1.64544 -5.14877 
640 1 2.23913 -0.814545 -4.67593 
1363 2 3.29713 -1.45424 -4.93281 
1202 2 3.28301 -1.09339 -5.64032 
1167 2 4.19473 -0.992054 -5.0693 
1224 2 4.1643 -0.833739 -5.86926 
436 1 4.41332 -1.78022 5.80187 
771 1 5.31234 -1.69411 -5.0425 
176 1 5.26009 -1.47922 -5.91429 
1623 2 4.94687 -0.849875 -4.54566 
1615 2 -5.27061 0.149204 -5.3748 
1343 2 -4.31535 0.502678 -5.64977 
1256 2 -4.58747 0.0638238 -4.87451 
179 1 -3.99262 -0.333007 5.66038 
374 1 -3.28095 -0.445293 -4.75267 
701 1 -2.48086 -0.193705 -4.76978 
749 1 -2.52613 0.148381 -5.62661 
704 1 -1.61267 0.0405797 -4.54237 
37 1 -1.63633 0.402571 -5.26441 
1569 2 -1.19115 -0.389677 -5.87235 
789 1 -0.837198 0.592602 -5.12506 
1296 2 -0.714666 -0.730952 -4.7957 
1478 2 0.0902892 -0.47874 -4.73748 
1573 2 0.272351 -0.163908 -5.52759 
1537 2 -0.502688 -0.181792 -5.40733 
1852 2 0.95026 0.159296 -5.25252 
1975 2 1.85417 0.498448 -5.22697 
299 1 2.30421 -0.419481 -5.61061 
866 1 3.03843 -0.0910756 -5.37511 
818 1 3.75262 0.0519359 -5.11954 
831 1 3.91561 0.306588 -5.85927 
2001 2 4.98537 -0.568161 -5.32708 
1111 2 5.83092 -0.246391 -5.04811 
915 1 4.53042 0.220077 -4.93683 
420 1 -5.91256 1.06174 -5.2248 
656 1 -5.0544 1.21679 -4.9878 
1443 2 -3.68284 0.758477 -5.35883 
980 1 -4.19108 1.61291 -5.04836 
1050 2 -2.84676 1.05303 -5.1463 
1054 2 -2.0644 1.39857 -5.20937 
1576 2 -1.97921 1.5803 5.82543 
1364 2 -1.30736 1.42251 -4.70865 
1386 2 -1.21509 1.80925 -5.52119 
625 1 0.0586878 0.853377 -5.23288 
895 1 0.829517 1.141 -4.86023 
254 1 0.766409 1.45101 -5.76559 
63 1 1.59506 1.7389 -5.53553 
760 1 1.61134 1.34583 -4.7262 
1910 2 2.6162 0.813311 -5.04051 
1180 2 2.90561 1.063 -5.91489 
380 1 2.49809 1.92777 -5.3862 
1412 2 3.49904 0.937451 -4.60706 
1226 2 4.5159 1.61353 -5.40416 
1470 2 3.66805 1.27598 -5.39448 
872 1 5.23227 0.637374 -5.01005 
960 1 4.6566 0.690875 -5.7579 
319 1 5.49595 0.871441 -5.87171 
1729 2 5.23191 1.7605 -4.98992 
1396 2 -5.83435 2.12131 -4.93356 
1377 2 -5.08404 2.46664 -4.97516 
1810 2 -4.98206 2.77382 -5.9917 
1403 2 5.98384 2.32745 -5.72295 
491 1 -3.95552 1.97052 -5.74408 
1716 2 -4.26143 2.75618 -5.18155 
1482 2 -3.58702 3.2331 -5.26797 
1485 2 -4.22223 2.57407 -4.38921 
903 1 -3.39914 1.86252 -4.85195 
820 1 -3.15405 2.22954 -5.76247 
1015 1 -2.23191 2.52165 -5.56887 
494 1 -1.40042 2.68946 -5.27393 
301 1 -0.714646 2.97059 -4.95329 
383 1 -0.746755 3.35927 -5.83541 
1063 2 -0.328844 2.1995 -5.43851 
56 1 0.175558 3.27212 -4.90616 
1639 2 0.575126 2.35283 -5.34111 
1653 2 1.38352 2.66569 -5.26121 
1298 2 1.33299 3.02161 5.88723 
1408 2 2.09899 3.09873 -5.77271 
1628 2 2.26279 2.87498 -4.94784 
396 1 3.34562 2.21343 -5.18145 
1979 2 3.07644 3.09094 -4.66412 
204 1 4.00798 2.4671 -4.63584 
800 1 4.23954 2.68654 -5.40344 
445 1 4.96522 3.05283 -5.71252 
178 1 5.7313 3.31923 -5.29407 
984 1 4.90168 2.64625 -4.88878 
1919 2 5.187 2.05095 5.90912 
188 1 -5.38128 3.46066 -5.27138 
1618 2 -5.7323 4.36704 -4.81285 
83 1 -4.76041 4.10842 -5.74336 
989 1 -4.59713 3.96135 -4.92205 
607 1 -3.7162 4.06787 -4.9195 
45 1 -3.83702 4.36655 -5.76382 
1934 2 -2.4964 3.58565 -5.71608 
1620 2 -2.67055 3.32289 -4.93666 
428 1 -2.95337 4.51136 -5.41508 
1142 2 -1.65992 3.97594 -5.62045 
1877 2 -1.77379 3.6266 -4.89473 
1869 2 -0.890755 4.31142 -5.40169 
1336 2 -0.130189 4.43189 -5.10154 
710 1 0.0649827 3.52768 -5.78223 
815 1 1.95635 4.23865 -5.79763 
415 1 0.937141 3.88351 -5.53052 
310 1 0.97171 3.43278 -4.64278 
950 1 1.66115 3.80302 -5.18429 
1130 2 2.92913 3.33797 -5.44196 
716 1 2.65935 4.24862 -5.10513 
1274 2 3.72589 3.64259 -5.68192 
1769 2 4.44915 4.01751 -5.24423 
1342 2 5.36174 4.24726 -4.89578 
1933 2 5.47175 4.49674 -5.768 
412 1 -5.23419 -5.9349 -5.03527 
1670 2 -5.62897 4.8127 -5.53878 
1640 2 -4.90982 5.14252 -5.49498 
1349 2 -4.02013 5.04335 -4.98177 
1757 2 -3.24789 5.4795 -5.06743 
1048 2 -3.26413 5.90416 5.94841 
82 1 -2.25234 4.76592 -5.25554 
1413 2 -2.43737 5.74253 -4.88302 
632 1 -1.36052 5.43334 5.94766 
729 1 -1.34061 5.04912 -5.05457 
528 1 0.334373 5.8895 -5.49405 
123 1 -0.503594 5.40852 -4.9622 
135 1 -0.561679 5.64259 -5.86224 
1033 2 0.446025 5.05772 5.89254 
1039 2 0.762692 4.77716 -5.04684 
17 1 0.241247 5.60488 -4.66686 
1193 2 1.6366 4.88161 -4.93591 
1032 2 1.35883 5.26986 -5.65943 
256 1 3.37498 4.60549 -5.03992 
1748 2 2.25968 5.51189 -5.73987 
1437 2 3.19122 5.81517 -5.61593 
1823 2 2.43738 5.22812 -4.87614 
486 1 4.36106 5.43722 -5.80245 
653 1 3.76513 4.82426 -5.64012 
48 1 4.24803 4.98351 -4.82093 
407 1 5.85339 5.73311 -5.14167 
318 1 5.09089 5.35869 -5.28687 
1272 2 -5.50238 -5.07783 -4.57822 
1418 2 -5.53537 -5.39074 -3.73638 
1633 2 -4.62337 -4.97131 -4.44276 
1192 2 -4.73238 -5.24869 -3.52695 
473 1 -3.60594 -5.66551 -4.57342 
346 1 -3.64216 -5.88154 -3.82598 
1079 2 -3.88802 -5.01225 -3.39803 
255 1 -2.716 -5.62998 -3.60897 
1008 1 -2.75974 -5.343 -4.51056 
508 1 -2.034 -5.40168 -3.1609 
333 1 -1.98529 -5.1543 -4.15486 
1571 2 -0.837616 -5.72013 -4.4337 
274 1 -1.10506 -4.58481 -4.20557 
1592 2 -0.912061 5.79783 -3.47303 
1486 2 -0.0529734 -5.30431 -4.38202 
1429 2 -0.16599 -5.61813 -3.59987 
1790 2 1.66756 -5.01806 -3.87212 
1737 2 0.802188 -5.15817 -4.10572 
64 1 2.03126 -5.88407 -4.31724 
1013 1 2.82069 -5.57937 -4.15538 
666 1 4.46365 -4.65099 -4.34147 
955 1 3.53103 -5.25356 -3.91458 
496 1 4.29039 -4.97518 -3.62456 
1425 2 4.84965 -5.84621 -4.10597 
1358 2 5.65489 -5.68773 -3.90392 
847 1 5.16825 -4.88739 -3.66474 
75 1 -4.98836 -4.03522 -3.98279 
817 1 -5.79739 -4.12674 -4.06512 
339 1 5.848 -4.4579 -3.26614 
1477 2 -3.86447 -4.63997 -4.32189 
273 1 -4.19299 -3.40324 -4.50602 
483 1 -4.31093 -3.70284 -3.67009 
218 1 -3.56706 -3.6301 -3.56533 
991 1 -3.43552 -3.19557 -4.36656 
1807 2 -3.0894 -4.43542 -4.09238 
1106 2 -2.41968 -4.22185 -3.99317 
2009 2 -1.61084 -3.6773 -4.44168 
1531 2 -1.59353 -3.94411 -3.51862 
467 1 -0.423343 -4.09487 -4.71132 
1280 2 -0.746507 -3.51946 -3.53202 
328 1 -0.252702 -4.32681 -3.8483 
107 1 0.52106 -4.26488 -3.82401 
782 1 1.17522 -3.65355 -4.45503 
321 1 1.27128 -4.0767 -3.60085 
1836 2 2.41911 -4.44756 -4.63843 
1198 2 2.46563 -4.63419 -3.83909 
547 1 1.98382 -3.62383 -4.03775 
1521 2 3.26607 -4.31195 -3.51939 
2010 2 3.22323 -4.0469 -4.38071 
1655 2 3.99593 -3.57993 -4.02067 
1765 2 4.0454 -4.10833 -3.34793 
131 1 5.33129 -4.33879 -4.31038 
2002 2 4.97154 -3.49217 -3.91916 
1871 2 -5.58085 -2.72217 -4.39124 
1465 2 -4.67277 -2.5073 -4.29167 
1911 2 -5.23961 -2.91667 -3.59702 
66 1 -5.71657 -2.12765 -3.08185 
1271 2 -3.79945 -2.22162 -4.1043 
599 1 -2.5836 -3.12194 -4.15809 
21 1 -2.80527 -3.37142 -3.38288 
421 1 -1.18038 -2.10404 -4.62983 
236 1 -1.83285 -2.69322 -4.19051 
313 1 -0.931675 -2.39826 -3.73321 
1370 2 -0.877572 -3.26903 -4.41534 
1581 2 -0.042531 -3.0835 -4.32476 
597 1 -0.104302 -2.14249 -3.77217 
1083 2 0.862053 -2.88007 -3.79792 
1401 2 1.75441 -2.52599 -3.87389 
1259 2 2.59929 -2.30904 -3.44801 
277 1 2.89745 -3.29181 -3.70562 
25 1 4.37659 -2.24697 -4.42554 
914 1 3.67029 -2.64425 -3.63165 
602 1 4.6391 -2.47385 -3.57585 
1201 2 5.8427 -3.2881 -3.59477 
205 1 -5.82656 -1.85565 -3.857 
214 1 5.23194 -1.94541 -4.19393 
592 1 -5.05299 -1.64355 -3.74181 
1498 2 -5.41027 -0.672407 -3.4934 
58 1 -4.17518 -0.997553 -4.5616 
734 1 -3.98658 -1.29875 -3.69979 
505 1 -3.19391 -0.956495 -4.00276 
917 1 -3.22903 -1.36592 -3.2598 
1086 2 -3.04193 -1.7996 -4.77711 
1808 2 -2.99796 -2.11377 -3.90907 
1781 2 -2.16484 -1.91556 -3.5169 
1097 2 -2.18843 -1.59682 -4.36294 
1801 2 -1.33645 -1.26385 -4.14578 
2046 2 -1.40748 -1.65086 -3.23587 
1644 2 -0.584623 -0.882154 -3.96175 
674 1 -0.267394 -1.7809 -4.52581 
1819 2 0.356152 -0.660283 -3.77568 
35 1 0.624458 -1.44427 -4.33461 
367 1 0.676653 -1.85741 -3.48698 
768 1 1.44758 -1.47407 -4.04577 
427 1 1.49575 -1.71777 -3.17012 
106 1 2.20467 -1.1516 -3.86459 
199 1 2.96465 -0.803094 -3.7673 
1030 2 3.42818 -1.69155 -4.06077 
2036 2 4.24213 -1.24719 -4.08836 
116 1 3.82714 -0.527108 -3.44471 
2035 2 5.00774 -1.16605 -3.70364 
1436 2 5.7436 -0.874147 -3.47818 
1212 2 -5.31818 -0.330748 -4.46644 
697 1 -5.61556 0.426942 -3.71974 
1830 2 -4.54365 -0.195732 -4.0389 
2028 2 -3.71451 0.395195 -4.54021 
1184 2 -3.72164 0.049322 -3.76352 
767 1 -2.40359 -0.608172 -3.91581 
1736 2 -2.91321 0.168856 -3.60922 
2022 2 -1.95188 0.551122 -3.38227 
1643 2 -2.93664 0.613513 -4.28394 
799 1 -0.861511 0.157363 -4.21801 
419 1 -1.55279 -0.320186 -3.68471 
59 1 -0.821509 -0.193454 -3.40754 
499 1 -0.119171 0.393374 -4.3178 
517 1 -0.0281128 0.182393 -3.42983 
1916 2 1.32962 -0.344377 -3.68258 
1143 2 1.02977 -0.235995 -4.50936 
1517 2 2.24963 0.013951 -3.47323 
1223 2 1.89953 0.129072 -4.43293 
846 1 3.16596 -0.536001 -4.5721 
1963 2 2.72187 0.391254 -4.11318 
700 1 3.84508 -0.280491 -4.30755 
1456 2 3.72805 0.683094 -3.87367 
469 1 4.60746 -0.134172 -3.25345 
302 1 4.62963 0.0199792 -4.07086 
1163 2 5.76894 -0.484488 -4.24697 
109 1 5.3439 0.442905 -4.10455 
338 1 -5.8184 0.660087 -4.52588 
752 1 -4.8983 0.632772 -3.42737 
354 1 -4.93617 0.850196 -4.27155 
1654 2 -5.16171 2.09466 -4.22227 
164 1 -4.26837 1.32023 -4.18866 
613 1 -3.98198 0.98633 -3.37044 
489 1 -3.39669 1.43298 -4.00392 
843 1 -2.43443 1.82911 -3.90884 
1550 2 -2.17229 0.95575 -4.28219 
982 1 -3.1994 1.04436 -3.1206 
1149 2 -1.28348 1.12337 -3.88346 
1187 2 -0.471878 1.61864 -4.7433 
1104 2 -0.447325 1.32298 -3.8218 
1310 2 0.470737 1.6172 -3.93309 
492 1 0.674469 0.630512 -4.12361 
1683 2 0.378151 1.98546 -4.6605 
594 1 1.47697 0.961903 -4.00587 
1838 2 1.24464 1.79487 -3.52448 
621 1 2.43784 1.65821 -4.54747 
894 1 3.21048 1.91526 -4.32198 
1011 1 2.23551 1.27155 -3.75809 
731 1 3.03793 1.39643 -3.62462 
1172 2 4.18022 1.29999 -4.64923 
2008 2 4.478 0.9778 -3.6787 
171 1 3.87153 1.69951 -3.25967 
1986 2 -5.91634 1.6718 -4.1698 
1497 2 5.10264 1.37554 -4.26429 
1068 2 4.97453 1.11353 -3.14042 
772 1 -5.45567 3.24069 -4.40503 
26 1 -5.37937 2.86669 -3.55403 
369 1 -4.66985 3.13206 -3.28369 
1728 2 -3.3516 2.80784 -4.40782 
1938 2 -4.46941 2.10591 -3.69281 
1794 2 -3.64226 2.53653 -3.69612 
719 1 -2.38262 2.27182 -4.67506 
1625 2 -2.60078 3.08069 -4.11556 
1607 2 -2.87184 2.68117 -3.386 
208 1 -1.48125 2.07078 -3.5564 
561 1 -1.61282 2.40907 -4.37563 
134 1 -0.728033 2.2197 -3.37218 
115 1 -0.522367 2.62313 -4.17548 
397 1 0.296957 2.88229 -4.00849 
1506 2 1.25605 2.29194 -4.32901 
379 1 1.30311 3.13468 -3.72531 
2020 2 1.97038 2.51642 -4.15546 
1214 2 2.8149 2.93128 -3.81183 
1999 2 3.66758 3.09552 -3.87139 
1562 2 4.47588 3.30948 -3.53254 
702 1 3.94175 2.08671 -3.92794 
676 1 5.52049 3.04087 -4.59432 
869 1 5.7695 2.60843 -3.77427 
726 1 4.85536 2.45585 -3.98084 
1333 2 -5.72757 4.0725 -3.91079 
1275 2 -4.90602 4.47582 -3.72937 
797 1 -4.66311 3.47808 -4.14901 
1636 2 -5.93441 3.72585 -3.10036 
446 1 -3.86492 3.79551 -4.03098 
1957 2 -3.9313 4.61124 -3.53367 
250 1 -2.94781 4.33822 -4.59652 
340 1 -3.02907 3.88417 -3.77577 
612 1 -2.22259 4.11986 -3.53681 
1175 2 -1.76065 3.24583 -3.89677 
1824 2 -0.974378 3.87399 -4.65884 
86 1 -2.183 4.51063 -4.36658 
1268 2 -0.864946 3.50482 -3.92471 
111 1 -1.46848 4.32867 -3.34371 
1354 2 -0.19957 4.11905 -4.29617 
1926 2 -0.0792709 3.6734 -3.48726 
1304 2 0.54427 4.5163 -4.32793 
1183 2 0.777268 4.0147 -3.54893 
510 1 1.74515 3.63909 -4.35469 
1161 2 1.62087 4.43396 -3.29771 
1847 2 1.38411 4.5637 -4.12619 
709 1 2.53417 3.9884 -4.33699 
885 1 2.21581 3.54489 -3.53263 
835 1 3.48318 4.28158 -4.10168 
2039 2 3.73067 3.51409 -4.76454 
1439 2 4.48256 3.63664 -4.33194 
662 1 4.22049 4.63584 -4.04684 
1971 2 5.27449 3.88303 -4.13424 
1994 2 5.1765 3.48262 -3.37542 
1575 2 -5.00872 4.7908 -4.73647 
435 1 -5.35481 5.67371 -4.2391 
918 1 -5.25378 5.29458 -3.38706 
1038 2 -4.21041 4.91816 -4.19371 
825 1 -4.42319 5.89467 -3.99234 
1329 2 -3.19749 4.89874 -3.44659 
1353 2 -3.40915 5.12968 -4.32219 
1236 2 -2.52326 5.42224 -4.07012 
568 1 -1.45162 4.6993 -4.23788 
1335 2 -1.64581 5.60813 -3.81043 
495 1 0.248443 5.35525 -3.76593 
628 1 -0.536865 5.04642 -4.10932 
575 1 1.09457 5.78356 -4.56987 
564 1 1.0911 5.34422 -3.76376 
442 1 1.97464 5.91311 -3.44162 
1875 2 3.23599 5.7086 -4.81179 
1667 2 2.30186 4.83141 -4.01792 
1955 2 3.20797 5.25768 -4.09064 
1704 2 3.99481 5.81229 -4.32379 
443 1 5.02752 4.71957 -3.70044 
699 1 5.07938 5.07584 -4.52687 
579 1 5.91775 5.24793 -4.37924 
775 1 5.7911 5.00962 -3.49144 
1489 2 4.5293 5.70412 -3.23203 
1197 2 -4.95797 -5.61459 -2.68048 
1285 2 -5.6862 -5.72428 -3.08188 
130 1 -5.79502 -4.93675 -2.5464 
1454 2 -4.17529 -5.36329 -2.60852 
993 1 -3.58886 5.6764 -2.99794 
1047 2 -3.26154 -5.26026 -2.44344 
1783 2 -3.1294 -4.75349 -3.18069 
1613 2 -2.42917 -4.81001 -2.30498 
260 1 -1.90048 -5.67948 -2.38397 
295 1 -2.73851 5.89093 -2.80865 
805 1 -1.33327 -5.07356 -3.37307 
453 1 -1.16001 -5.41468 -2.51245 
413 1 -0.405815 -4.7868 -3.16722 
5 1 -0.474448 -5.07537 -2.36139 
661 1 0.400031 -4.94183 -2.03244 
1742 2 0.71361 -5.52227 -3.37759 
1747 2 0.870373 -5.72494 -2.53124 
1678 2 1.48151 -5.30565 -2.94411 
1319 2 1.49559 -5.62839 -2.00658 
180 1 2.87875 -5.86061 -3.30101 
1887 2 2.36684 -5.25751 -2.17168 
1082 2 2.40873 -4.91967 -2.93476 
1844 2 3.24083 -4.70201 -2.67971 
422 1 3.60526 -5.52482 -3.06409 
284 1 4.44822 -5.32016 -2.75766 
586 1 4.30031 -5.69762 -1.84574 
798 1 5.2863 -5.09319 -2.76022 
142 1 5.07672 -5.5708 -1.68323 
246 1 -5.16665 -4.3752 -3.19143 
542 1 -4.92082 -4.59953 -2.40557 
1657 2 -5.50431 -3.41222 -2.79595 
411 1 -4.3303 -4.22588 -3.016 
153 1 -3.98373 -4.35866 -2.06056 
524 1 -3.60508 -3.90443 -2.64687 
366 1 -3.18199 -4.13374 -1.70913 
1843 2 -2.38077 -4.34532 -3.14852 
46 1 -2.74072 -3.6666 -2.53874 
1327 2 -1.528 -4.20864 -2.81148 
1209 2 -1.62798 -4.64853 -2.00268 
1645 2 0.0944999 -3.4063 -3.23641 
326 1 0.424992 -4.64142 -2.80441 
1896 2 -0.816187 -3.79944 -2.66094 
1878 2 0.00373369 -3.81971 -2.58942 
938 1 1.23624 -4.33748 -2.92805 
1848 2 0.685481 -3.66612 -2.2465 
471 1 2.31331 -3.82291 -3.22438 
999 1 3.07961 -3.59953 -2.72638 
245 1 2.07773 -3.99303 -2.34376 
1001 1 2.81645 -3.93375 -1.91458 
1928 2 4.10329 -4.38688 -2.60614 
754 1 3.87359 -3.63951 -2.08345 
1240 2 5.54598 -3.55023 -2.73746 
1194 2 4.79648 -3.85813 -3.10533 
1409 2 4.91617 -4.28012 -2.32976 
1530 2 5.78327 -3.98165 -1.93838 
213 1 -5.17696 -2.45586 -2.25833 
1817 2 -4.59261 -3.21902 -2.84458 
2007 2 -4.35443 -2.52068 -3.46812 
1052 2 -3.83138 -2.95935 -2.42717 
1745 2 -3.58821 -2.53537 -3.20028 
1391 2 -2.67497 -2.32603 -2.89479 
1505 2 -2.96422 -2.75548 -2.20215 
71 1 -1.86299 -3.2472 -2.39099 
664 1 -2.02933 -3.02994 -3.37419 
388 1 -1.12429 -2.76462 -2.85829 
753 1 -1.01221 -3.05207 -2.04557 
1459 2 -2.12181 -2.46699 -1.75428 
1006 1 -0.179644 -2.49719 -2.89568 
657 1 -0.095274 -2.96854 -1.95232 
573 1 0.635907 -2.19589 -2.51652 
1982 2 1.00693 -3.19125 -2.81876 
1894 2 1.84594 -2.78543 -2.87551 
287 1 1.58562 -1.88118 -2.35501 
1066 2 1.4968 -3.2918 -1.92428 
1263 2 2.73059 -2.63936 -2.65004 
1973 2 3.55141 -2.27768 -2.46743 
1676 2 3.439 -1.83037 -3.1802 
296 1 4.01339 -3.12072 -2.89449 
1754 2 4.36665 -1.99058 -2.19978 
740 1 5.4273 -2.34186 -3.35339 
137 1 4.80911 -2.73633 -2.69511 
609 1 5.73996 -2.59577 -2.42979 
1876 2 -5.03679 -0.879282 -2.54627 
161 1 -4.88093 -1.82282 -2.87815 
1346 2 -5.93255 -1.18595 -2.66857 
1972 2 -5.85116 -1.51706 -1.93982 
722 1 -4.05336 -1.73656 -2.6793 
833 1 -4.40489 -2.28386 -1.87369 
630 1 -2.51751 -1.00913 -3.06214 
275 1 -3.12096 -1.46325 -2.36094 
285 1 -2.14839 -1.1297 -2.21571 
1870 2 -1.80388 -1.97633 -2.5508 
1235 2 -0.61392 -1.5879 -2.32469 
117 1 -1.23253 -0.929185 -1.90312 
1057 2 -0.528192 -1.30626 -3.10211 
1113 2 0.291427 -0.986701 -2.92249 
1659 2 0.370125 -1.31231 -2.09824 
1796 2 1.12375 -0.769986 -2.89973 
1568 2 1.04829 -0.937755 -2.09916 
334 1 2.26677 -1.38488 -2.97885 
215 1 2.28445 -1.76444 -2.06238 
715 1 3.02509 -1.11055 -2.78272 
692 1 4.07146 -0.828948 -2.66428 
1350 2 4.24867 -1.67933 -3.15666 
1110 2 5.06776 -1.37905 -2.71553 
876 1 4.81618 -0.392249 -2.34226 
689 1 -5.08865 0.210805 -2.70388 
190 1 -5.88486 0.00645173 -2.9182 
241 1 -5.34532 -0.195485 -1.89249 
1589 2 -4.53622 -0.530205 -3.3252 
1962 2 -4.19639 -0.913284 -2.30552 
1834 2 -3.75955 -0.327416 -2.87122 
32 1 -4.27219 0.409042 -2.59377 
1514 2 -3.19491 -0.597365 -1.8925 
1761 2 -2.95541 -0.148271 -2.80756 
1507 2 -2.18877 0.240288 -2.57515 
449 1 -1.81296 -0.702236 -2.91978 
750 1 -0.954014 -0.414617 -2.54229 
2043 2 -1.38938 0.473608 -2.37979 
898 1 -0.167665 -0.180951 -2.46741 
963 1 0.768837 0.0800909 -2.38632 
464 1 0.727123 0.421258 -3.24235 
783 1 1.63599 0.405021 -2.27241 
1360 2 1.92598 -0.429718 -2.74176 
1673 2 3.15873 0.336057 -3.3053 
2027 2 2.77869 -0.109454 -2.53964 
1953 2 4.04476 0.601413 -2.89074 
1952 2 3.53486 0.0690312 -2.24341 
1861 2 4.83335 0.700915 -2.54448 
691 1 5.3526 0.132094 -3.29743 
654 1 5.66592 -0.265691 -2.26498 
1132 2 -5.31691 1.73147 -3.30023 
1229 2 -4.67025 1.16684 -2.10326 
1512 2 -5.32313 1.37494 -2.545 
1776 2 -3.95931 1.72481 -2.18368 
1520 2 -4.48044 1.66151 -2.91276 
686 1 -3.46508 0.625172 -2.32588 
585 1 -2.44635 1.34358 -3.06698 
259 1 -2.59152 1.22215 -2.21811 
614 1 -1.72765 1.67754 -2.73882 
1893 2 -1.23655 0.846678 -3.09049 
919 1 -0.824569 1.88489 -2.68809 
307 1 -1.80206 1.37111 -1.93333 
1067 2 -0.485748 0.792666 -2.18573 
1340 2 -0.350524 0.962165 -2.94267 
1860 2 0.363393 1.45583 -3.02379 
50 1 1.47579 0.645563 -3.17421 
1642 2 1.06683 1.54848 -2.69137 
90 1 2.38408 0.683391 -1.93246 
1967 2 2.04931 1.87556 -2.40833 
874 1 3.06283 1.19776 -2.74031 
1021 1 2.19539 0.963269 -3.01479 
381 1 3.88437 1.53547 -2.44866 
1858 2 5.80088 1.26531 -3.44985 
1724 2 5.73711 1.03514 -2.539 
104 1 4.73502 1.75942 -2.31922 
232 1 4.61492 2.08453 -3.204 
631 1 -5.87244 2.51072 -2.69389 
194 1 -4.99347 2.66333 -2.55825 
761 1 -5.39039 2.03761 -1.84921 
2038 2 -3.58899 2.16354 -2.85725 
966 1 -4.19876 2.82027 -2.43374 
460 1 -3.9195 3.35169 -3.27496 
1415 2 -2.81495 2.21636 -2.56504 
1476 2 -1.99731 2.86794 -3.18692 
1959 2 -2.00531 2.65208 -2.41004 
1107 2 -1.19292 2.76195 -2.20519 
1756 2 -1.02625 3.16467 -2.9516 
896 1 0.0632732 2.62417 -3.26376 
143 1 0.13693 2.26725 -2.43526 
1616 2 -0.366592 3.02811 -1.8995 
124 1 1.81544 3.02498 -2.9784 
828 1 0.929936 2.76764 -3.07304 
747 1 1.0463 2.46938 -2.34299 
478 1 1.74952 2.85645 -2.07166 
1786 2 2.8591 2.06502 -2.41745 
1158 2 1.92692 2.16436 -3.28789 
1461 2 2.70279 2.34835 -3.24009 
742 1 2.63729 3.25032 -2.70702 
1522 2 3.55867 2.73723 -3.00358 
1330 2 4.30542 2.8974 -2.81459 
1866 2 3.73994 2.50944 -2.11216 
7 1 5.68108 1.88451 -2.01254 
811 1 5.38577 2.19623 -3.06036 
1026 2 5.29301 3.23056 -2.5084 
1276 2 -5.93019 3.52194 -2.23923 
1825 2 -5.00304 4.07579 -2.91521 
1399 2 -5.19872 3.66738 -2.19496 
1669 2 -4.14108 4.16637 -2.73365 
1419 2 -3.31349 4.36183 -2.59341 
323 1 -3.41687 3.23618 -2.27825 
276 1 -3.08823 3.47834 -2.96458 
520 1 -2.29865 3.68767 -2.7738 
733 1 -1.4247 4.04656 -2.55491 
1689 2 -0.0691852 3.36789 -2.60935 
266 1 -0.645983 4.32273 -2.36241 
1372 2 0.8275 3.75246 -2.6745 
1071 2 1.56188 4.03785 -2.50381 
884 1 3.18132 3.8799 -3.35609 
1668 2 2.38674 4.5774 -3.08205 
2040 2 2.27657 4.27403 -2.25028 
1981 2 3.04599 4.61717 -2.18237 
183 1 3.34804 3.60703 -2.5671 
394 1 4.06396 4.18696 -3.18376 
580 1 4.1702 3.80798 -2.32897 
961 1 5.09538 4.13332 -2.0813 
448 1 4.85996 4.38283 -2.97892 
552 1 -5.41419 4.97312 -2.5688 
1534 2 -5.57908 5.87916 -2.17495 
262 1 -4.43055 5.46052 -3.07984 
342 1 -4.53111 5.11831 -2.29632 
119 1 -3.63953 5.19199 -2.21873 
1287 2 -2.56919 4.57193 -2.22369 
1334 2 -2.37921 4.98856 -3.02909 
1348 2 -1.5581 5.43594 -2.85623 
1339 2 -1.72643 4.95646 -2.18504 
1338 2 -0.772346 5.45884 -2.7915 
1880 2 -1.00285 5.21103 -1.99054 
836 1 0.223481 4.41465 -2.1491 
720 1 -0.693053 4.63173 -3.38293 
1818 2 -0.000492602 5.9379 -2.76005 
503 1 0.103691 4.78677 -3.05672 
652 1 0.82001 5.0956 -2.78329 
667 1 1.04481 4.92908 -1.88081 
648 1 1.67191 5.41866 -2.78808 
49 1 1.86584 5.11044 -1.98761 
425 1 2.57771 5.59025 -2.51727 
1093 2 3.07008 4.93116 -3.25557 
1691 2 3.66712 5.53954 -3.48481 
461 1 3.45176 5.96186 -2.22687 
1244 2 3.83125 5.06215 -2.6878 
1394 2 5.4092 -5.95523 -3.14269 
432 1 5.74323 4.60154 -2.65105 
1593 2 4.61653 5.18851 -2.46587 
1312 2 5.33957 5.56549 -2.3476 
864 1 -5.08271 -5.05079 -1.52656 
988 1 -5.75909 -5.35389 -0.904476 
1822 2 -4.68036 -5.93549 -1.92315 
452 1 5.94534 -5.22154 -1.71388 
456 1 -4.88702 -5.25611 -0.758739 
1292 2 -3.82801 -5.75884 -1.93438 
182 1 -4.14402 -4.97506 -1.32394 
1782 2 -3.63193 5.9181 -0.812204 
1404 2 -3.02829 -5.45693 -1.50242 
1582 2 -2.21625 -5.17469 -1.23267 
1932 2 -1.38771 -4.87551 -1.08258 
1753 2 -0.549677 -4.46284 -0.902545 
934 1 -1.40022 -5.81207 -1.53866 
954 1 -2.18689 5.81829 -1.6943 
147 1 -0.647611 -5.58746 -1.71908 
459 1 -0.0168589 -5.32022 -1.18458 
1540 2 0.566459 5.86531 -1.68914 
317 1 0.897066 -5.05852 -1.10171 
569 1 1.21271 -4.65459 -2.01953 
1081 2 1.34571 5.81471 -1.27756 
1864 2 2.13543 -5.83438 -1.365 
1199 2 2.98894 -5.53047 -1.09572 
1563 2 3.08149 -5.06419 -1.88781 
1749 2 3.92167 -4.813 -1.7488 
1309 2 3.75802 -5.16145 -0.851171 
65 1 5.33279 -5.85594 -0.925611 
1859 2 4.81436 -4.53335 -1.42724 
1767 2 -5.37717 -3.70467 -1.87616 
1217 2 -5.4452 -4.11523 -1.0661 
1664 2 -4.43136 -3.53595 -1.94982 
1400 2 -4.53724 -3.95695 -1.02925 
248 1 -3.4122 -4.61115 -1.08536 
890 1 -2.22978 -3.8206 -1.76363 
324 1 -2.61853 -4.16063 -0.955501 
51 1 -1.42945 -3.68142 -1.41317 
677 1 -0.43266 -3.30028 -1.25222 
986 1 -1.80515 -3.91775 -0.667197 
1802 2 -0.865768 -4.36882 -1.89748 
1246 2 -0.0652632 -4.16491 -1.66628 
1051 2 0.486755 -4.23521 -0.795238 
1580 2 0.819905 -3.80239 -1.37386 
1698 2 1.8432 -3.52031 -1.27837 
249 1 1.88832 -4.50499 -1.66638 
140 1 2.6448 -4.26275 -1.13631 
550 1 3.46532 -4.05438 -1.28601 
291 1 4.71948 -3.19495 -1.94678 
522 1 4.32166 -3.66447 -1.2202 
2017 2 5.57942 -4.4232 -1.34605 
562 1 5.0682 -3.47156 -0.984521 
968 1 -4.787 -2.72189 -1.28971 
636 1 -5.7113 -2.79038 -1.59679 
311 1 -4.89905 -3.03687 -0.53829 
928 1 5.98692 -3.21676 -0.81917 
1924 2 -3.74443 -3.30341 -1.58403 
683 1 -4.06619 -2.52482 -0.999068 
948 1 -3.26646 -2.04071 -0.882314 
1442 2 -2.98806 -2.99196 -1.40297 
1216 2 -2.11389 -2.96904 -1.00768 
1121 2 -1.39405 -2.4657 -1.07412 
1449 2 -1.21462 -2.19214 -1.87744 
1416 2 -0.568325 -2.35405 -0.819619 
830 1 0.510867 -2.96366 -1.14415 
526 1 0.600718 -2.48039 -1.81784 
211 1 1.47271 -2.31077 -1.65919 
705 1 1.27594 -2.73662 -0.825263 
1991 2 2.56777 -3.10261 -1.09933 
566 1 2.06219 -2.17046 -1.09464 
1457 2 2.49082 -2.86571 -1.896 
1123 2 4.14724 -2.52816 -1.40814 
1533 2 3.34642 -2.77146 -1.54853 
1326 2 3.91254 -2.87525 -0.563972 
784 1 5.42833 -2.9512 -1.60407 
1978 2 4.93358 -2.18399 -1.17915 
1641 2 -4.96856 -1.5347 -1.7418 
2005 2 -5.22885 -1.60507 -0.817287 
1760 2 -4.23665 -1.23219 -1.46711 
1206 2 -3.61565 -0.867391 -1.14073 
219 1 -3.63669 -1.94872 -1.88757 
447 1 -2.64526 -1.55249 -1.42816 
1826 2 -2.74386 -0.690242 -0.88637 
548 1 -1.71381 -1.34738 -1.17672 
757 1 -0.835117 -1.05335 -1.07214 
1827 2 -0.285965 -1.97576 -1.52198 
1177 2 0.59815 -1.66918 -1.25104 
588 1 0.0421769 -0.848014 -1.04229 
1777 2 1.86427 -0.824976 -1.8689 
1493 2 1.56999 -1.19879 -1.19736 
377 1 3.2479 -1.43741 -1.93552 
839 1 2.85802 -1.7492 -1.23888 
1897 2 2.4535 -0.865047 -0.958357 
518 1 4.04425 -1.09016 -1.8707 
125 1 3.85006 -1.6826 -0.85816 
1279 2 5.22392 -1.79281 -2.07013 
222 1 4.57267 -1.2481 -0.833802 
958 1 4.78976 -0.871279 -1.58358 
1028 2 5.82702 -1.90979 -1.08471 
962 1 5.7883 -0.556437 -1.60833 
230 1 -5.31499 -0.672576 -1.13347 
900 1 -4.59009 -0.213049 -1.1351 
1680 2 -5.82338 0.322174 -0.949461 
297 1 -4.47091 0.0634195 -1.91178 
278 1 -3.56634 0.23344 -1.49312 
921 1 -3.93233 -0.0262368 -0.621864 
1098 2 -2.37687 -0.258079 -1.73943 
1323 2 -1.46319 0.0856319 -1.69193 
1031 2 -1.82984 -0.223404 -1.00844 
1432 2 -0.79167 0.436578 -1.32873 
160 1 -0.454139 -0.591895 -1.68339 
1128 2 0.0375491 0.71553 -1.11957 
615 1 0.31676 -0.0825692 -1.64758 
601 1 1.3609 0.0410268 -1.53457 
870 1 0.731184 -0.545972 -0.899414 
776 1 1.5604 -0.29643 -0.76709 
1832 2 2.64389 -0.551324 -1.80522 
243 1 2.09635 0.282286 -1.26899 
858 1 2.87023 0.505941 -0.93128 
1282 2 4.32867 0.310674 -1.88867 
1696 2 3.40517 -0.282257 -1.47096 
1502 2 4.17635 -0.188201 -1.16029 
1803 2 5.14433 0.664066 -1.77958 
2030 2 5.10131 0.294164 -1.09421 
1508 2 -4.97658 0.488371 -0.50811 
1720 2 -5.61262 0.76898 -1.76075 
1672 2 -4.89942 0.894152 -1.22189 
1003 1 -5.27086 1.80957 -0.930895 
1170 2 -3.4196 1.53413 -1.0186 
1305 2 -4.06674 1.2325 -1.4127 
189 1 -2.91519 0.721907 -1.62579 
1622 2 -2.56746 1.89025 -0.971116 
94 1 -2.08332 0.893248 -1.19074 
192 1 -1.02128 1.5891 -1.84832 
910 1 -1.24199 1.2302 -1.05915 
1297 2 0.497492 1.07246 -2.14097 
76 1 -0.11247 1.7871 -1.75663 
240 1 -0.320409 1.5407 -0.714641 
1811 2 1.30925 1.29972 -1.87012 
1726 2 1.86208 1.21599 -0.869615 
1735 2 0.866775 0.905048 -1.20263 
1681 2 2.21873 1.65402 -1.52085 
16 1 3.19898 1.04747 -1.70027 
1874 2 3.04895 1.97165 -1.49136 
231 1 4.06691 1.24362 -1.72678 
84 1 3.68826 0.797073 -0.894353 
1017 1 4.92918 1.58463 -1.57256 
944 1 5.73228 1.75185 -1.17021 
1278 2 -5.57872 3.12731 -1.44003 
1886 2 -5.58701 2.73566 -0.7461 
1960 2 -4.73615 3.41265 -1.24886 
926 1 -4.63584 2.31349 -1.62333 
298 1 -3.81881 2.71338 -1.66531 
110 1 -4.42913 2.13563 -0.929797 
69 1 -3.64603 2.52489 -0.70056 
1839 2 -3.14585 1.90531 -1.77653 
2021 2 -2.32634 2.34165 -1.71625 
696 1 -3.00501 2.93438 -1.38071 
879 1 -1.98141 3.18656 -0.994349 
1092 2 -1.52214 2.27708 -1.41597 
937 1 0.746788 2.31664 -1.67252 
1428 2 -0.537534 2.64043 -1.1132 
1405 2 0.221765 2.98211 -1.03882 
114 1 1.5234 2.36425 -1.3508 
34 1 2.55377 2.9001 -1.84539 
786 1 2.39431 2.56837 -1.03001 
181 1 3.52615 3.36637 -1.61362 
1718 2 3.95455 2.19062 -1.22335 
582 1 3.3082 2.88247 -0.906327 
1065 2 4.71712 2.72881 -1.91322 
1977 2 4.78127 2.39663 -1.00515 
1527 2 5.58019 2.84881 -1.71822 
1328 2 5.56541 2.53606 -0.671839 
679 1 -5.14683 4.32964 -0.85929 
1325 2 -4.41662 3.89391 -2.02473 
1056 2 -3.88868 3.67901 -1.075 
1601 2 -3.47192 3.97451 -1.76096 
418 1 -2.56043 3.26456 -1.95438 
1155 2 -3.02484 3.90095 -0.633902 
1344 2 -2.67059 4.28577 -1.44122 
165 1 -1.63842 3.57543 -1.76871 
627 1 -1.1071 3.46868 -0.7754 
487 1 -0.0911666 4.23983 -1.22864 
985 1 -0.928208 3.96895 -1.58505 
1679 2 0.413602 3.37802 -1.88741 
187 1 -0.227449 3.70018 -0.509785 
1917 2 1.12813 3.33121 -0.862349 
1997 2 1.23188 3.73895 -1.72519 
1974 2 1.87984 3.31322 -0.691851 
1854 2 2.18668 3.70268 -1.45497 
1126 2 3.00081 4.109 -1.34178 
974 1 4.39458 3.47997 -1.40133 