ITEM: TIMESTEP
16600
ITEM: NUMBER OF ATOMS
2048
ITEM: BOX BOUNDS pp pp pp
-5.9272345423972155e+00 5.9272345423972155e+00
-5.9272345423972155e+00 5.9272345423972155e+00
-5.9272345423972155e+00 5.9272345423972155e+00
ITEM: ATOMS id type x y z 
1227 2 -5.01375 -4.8161 -4.92459 
14 1 -5.02272 -5.88298 -5.15958 
333 1 -3.64586 -4.82897 5.74138 
805 1 -4.09248 -5.46347 -5.04096 
554 1 -4.38438 -5.30698 -5.80953 
91 1 -2.2684 -4.7079 -5.18572 
1958 2 -2.57779 -5.41328 5.50596 
247 1 -3.36297 -5.11278 -5.26282 
416 1 -1.53698 -4.62835 -5.01107 
1542 2 -1.54985 -5.70935 -5.15198 
1035 2 -0.669765 -5.32049 -5.22064 
1429 2 -0.326811 -4.81905 -5.74481 
495 1 0.616157 -5.72974 -5.49223 
1260 2 0.522698 -4.70792 -5.20283 
648 1 1.28908 -5.2262 5.56042 
673 1 1.34869 -5.83488 -4.84966 
575 1 1.67501 -5.48977 -5.46165 
442 1 2.90387 -4.95058 -5.18781 
1704 2 3.82677 -5.30258 5.72247 
180 1 3.57379 -4.71911 -4.69881 
1612 2 5.227 -5.44973 -4.43096 
19 1 3.34986 -4.5298 -5.72765 
1192 2 4.3833 -5.35299 -5.30064 
1799 2 -5.81075 -5.1689 -4.68268 
251 1 -5.01545 -3.26192 -5.34859 
1734 2 -5.7945 -4.83391 -5.60865 
1103 2 -4.71916 -4.30657 -5.56356 
1046 2 -3.74487 -3.97007 -5.32026 
1711 2 -2.92691 -3.80844 -5.27146 
765 1 -1.68706 -4.27293 5.87386 
1630 2 -2.92548 -3.37986 5.83271 
2009 2 -2.12396 -3.52097 -5.44359 
227 1 -0.174657 -4.09438 -4.58268 
924 1 -1.00156 -4.00486 -5.21394 
77 1 -0.765382 -3.88608 5.66639 
1617 2 -1.95279 -2.98749 5.4962 
819 1 0.549459 -3.68349 -5.01937 
202 1 -0.261884 -3.8124 -5.52101 
1709 2 1.25332 -4.29945 -5.79333 
1486 2 1.5508 -4.50847 -5.04827 
136 1 1.35984 -2.80413 5.69453 
1790 2 1.92846 -3.87175 -5.64669 
1678 2 2.85703 -3.62302 -5.34283 
1887 2 2.51263 -4.2107 -4.62536 
1483 2 3.5027 -3.187 5.88623 
496 1 4.1404 -4.17939 -5.47057 
511 1 5.73492 -3.75138 -5.39041 
57 1 4.96318 -3.96602 -5.84416 
223 1 4.82902 -4.26745 -5.15646 
1937 2 -5.41344 -2.51138 -4.77512 
1475 2 -4.81868 -2.03794 -5.14847 
353 1 -3.94532 -2.87438 -4.99403 
1588 2 -4.23009 -2.00775 -4.57289 
465 1 -4.21199 -2.83462 -5.70827 
218 1 -3.31903 -3.13953 -4.448 
664 1 -3.10714 -2.79428 -5.27113 
151 1 -1.79675 -1.98493 -5.71893 
236 1 -2.2867 -2.41715 -5.08028 
1379 2 -1.14192 -2.93924 -5.85078 
35 1 -1.62116 -2.39184 -4.57881 
1370 2 -1.4592 -3.19046 -5.059 
1525 2 -0.174799 -2.40704 -5.72877 
1820 2 0.747313 -1.96202 -5.78495 
1555 2 0.44642 -2.55283 -4.927 
1190 2 1.80561 -1.56608 -5.64059 
547 1 1.89157 -2.74701 -5.53998 
939 1 2.39143 -2.24166 5.77042 
485 1 3.22113 -2.25945 -5.67818 
1232 2 4.47817 -3.42478 -4.50365 
904 1 4.10396 -2.1027 -5.22459 
475 1 3.97718 -1.7839 5.67676 
1129 2 5.2987 -2.88686 -4.82837 
1995 2 4.60848 -3.00319 -5.54154 
2032 2 5.76501 -2.4539 -5.44955 
740 1 -5.24003 -1.24493 -5.05689 
784 1 -5.85419 -1.6655 -4.27974 
771 1 -4.55589 -0.723044 -5.31538 
1745 2 -3.66619 -1.76055 -5.194 
833 1 -3.93331 -0.868942 -4.58293 
1733 2 -3.03217 -1.25699 -5.80123 
1271 2 -2.69913 -1.47882 -4.99724 
1809 2 -2.13468 -0.780797 -5.94326 
1345 2 -1.7682 -1.07502 -5.17145 
830 1 -1.06153 -2.03572 -5.139 
578 1 0.540456 -1.06817 -5.3171 
367 1 -0.0630327 -1.10872 5.84549 
8 1 -0.161904 -1.5058 -5.02026 
1964 2 2.65929 -1.14105 -5.87939 
788 1 1.4911 -0.606528 -5.40658 
1590 2 3.73855 -0.942201 -5.60951 
1676 2 3.12512 -1.37279 -5.15106 
1259 2 3.97138 -1.2663 -4.79352 
1775 2 4.49326 -0.742023 -5.28253 
2036 2 5.14321 -0.786487 -4.58675 
308 1 5.68117 -1.20719 -5.65944 
999 1 4.67391 -2.02869 -4.7456 
609 1 5.5465 -1.64608 -4.97114 
1797 2 -5.09797 0.585294 5.66179 
1498 2 -5.05141 0.115618 -4.84066 
1346 2 -3.72942 0.503798 -5.022 
505 1 -3.40601 -0.412667 -5.31661 
2028 2 -4.46508 0.50844 -5.50024 
451 1 -2.4367 -0.100314 -5.204 
789 1 -1.46775 0.358455 -5.11606 
1171 2 -0.868931 -0.616102 -5.28018 
1975 2 -0.582538 -0.902926 -4.20987 
1963 2 -0.345208 -0.346102 -4.82976 
42 1 2.38402 -0.496741 -5.10644 
1852 2 1.39817 0.368006 -5.0526 
1210 2 1.48462 0.728888 -5.87159 
31 1 2.17173 -0.153082 5.87509 
1180 2 2.03648 0.427738 -4.48434 
116 1 2.52434 -0.640269 -4.33324 
560 1 3.34343 -0.0505788 -5.48806 
758 1 3.24193 -0.252721 -4.6102 
60 1 4.02119 0.0284146 -4.80323 
1494 2 -5.54661 0.124333 -5.61615 
1623 2 5.72377 -0.106985 -5.09892 
656 1 -5.34637 1.11655 -4.77082 
752 1 -4.75289 1.44147 -5.12594 
915 1 -5.45457 1.49523 5.86551 
1962 2 -3.09534 0.953261 -5.64368 
190 1 -3.6341 1.76857 -5.18461 
1256 2 -1.58888 1.29371 -4.64442 
1736 2 -2.88776 0.900791 -4.76491 
1343 2 -2.18967 1.38056 -5.39139 
517 1 -1.22339 0.82288 5.64031 
1298 2 -1.65833 1.73143 -5.85664 
1054 2 -1.12254 1.9025 -5.26351 
842 1 0.414977 1.06224 -5.14025 
254 1 -0.849422 0.84596 -5.37202 
551 1 1.11754 1.28217 -4.73214 
380 1 1.66878 1.64036 -5.33519 
2041 2 2.29051 0.591471 -5.28828 
895 1 2.44485 1.931 -5.45485 
760 1 1.98064 1.4872 -4.35164 
1785 2 2.64012 0.518677 -4.04573 
1882 2 2.68915 1.17894 5.74782 
1470 2 3.95692 1.25937 -4.9369 
469 1 5.23661 0.675047 -4.85492 
302 1 5.81156 1.04401 -5.38407 
1204 2 4.52878 1.75764 -5.46124 
1068 2 4.89785 1.53558 -4.46709 
1403 2 -5.12619 2.2963 -4.78877 
1377 2 -5.00138 2.74356 -5.68095 
1497 2 5.38041 1.92607 -5.08953 
1175 2 -3.43954 3.06649 -5.1959 
1142 2 -4.38175 2.79855 -5.03893 
982 1 -2.87817 2.16859 -5.06226 
1625 2 -2.88608 3.19236 -4.55823 
852 1 -2.12104 2.60601 -5.13783 
593 1 -0.983818 2.98672 -5.13229 
1884 2 0.111818 2.15295 -4.9732 
1653 2 0.750807 2.16249 -4.46482 
1506 2 0.486245 2.59309 -5.61045 
1769 2 1.22893 2.55667 -5.09928 
1130 2 1.8354 2.95222 -5.49034 
401 1 1.7976 2.15732 5.61586 
796 1 3.36436 2.23032 -5.41363 
2020 2 2.35513 2.81823 -4.68862 
574 1 3.60911 2.2427 -4.58389 
869 1 4.04142 2.58477 -5.3214 
396 1 4.70614 2.75604 -4.8132 
923 1 -5.19984 3.65483 -5.02605 
1088 2 -5.21257 4.62384 -4.65661 
45 1 -4.40394 4.17036 -5.65271 
92 1 -3.7544 4.20173 -5.11201 
676 1 -4.37047 3.69668 -4.5992 
687 1 -3.09671 4.54083 -5.51619 
1869 2 -2.38405 3.56264 -5.19946 
1934 2 -3.11927 3.57272 -5.8847 
1824 2 -1.3618 4.03686 -4.89091 
1268 2 -1.90026 3.4981 -4.35349 
1096 2 -1.91581 4.00014 -5.59334 
1480 2 -0.779558 4.35706 -5.41468 
561 1 -0.179936 3.12265 -4.7381 
1336 2 0.170024 4.4853 -4.93091 
56 1 0.0796321 3.5203 -5.33545 
709 1 1.26287 3.80276 -5.04342 
76 1 1.76598 3.6109 -4.48614 
1628 2 2.79159 3.1467 -5.22591 
1979 2 2.52417 3.44411 -5.89652 
884 1 2.0192 4.14047 -5.39503 
256 1 2.61515 4.23345 -4.85484 
1274 2 3.46776 3.28808 -4.60346 
1618 2 4.14911 3.78806 -5.01497 
204 1 5.36082 2.91009 -4.44848 
1640 2 5.61757 4.53854 -5.39853 
1779 2 4.77355 4.1525 -5.50416 
1073 2 5.01721 3.92067 -4.60157 
435 1 -5.69396 5.6166 -4.91579 
1670 2 -4.80156 5.04654 -5.35868 
1191 2 -4.14796 5.11489 -4.71612 
1510 2 -3.53622 5.41784 -5.30767 
1127 2 -4.16243 5.53547 -5.9461 
1551 2 -3.08514 5.48408 -4.58277 
1365 2 -3.06215 5.93332 -5.71238 
1526 2 -2.41309 5.82132 -5.09112 
638 1 -1.79285 5.05753 -5.54238 
221 1 -1.38296 5.05332 -4.6813 
428 1 -0.953408 5.34963 -5.31137 
729 1 -0.524961 5.6748 5.75578 
350 1 0.547888 5.62117 -4.65208 
1145 2 0.747088 4.94717 -5.55173 
528 1 -0.103582 5.69709 -5.40202 
2040 2 1.04906 4.68741 -4.61283 
1093 2 1.492 5.32264 -5.87946 
1955 2 1.73535 5.11008 -5.13834 
1691 2 2.6215 5.46376 -5.22234 
777 1 2.69179 4.73247 5.88554 
1875 2 3.44324 -5.90914 -5.53563 
407 1 4.41345 5.05104 -5.22757 
501 1 3.37376 4.69899 -5.13158 
1559 2 3.95875 5.87773 -4.82095 
18 1 3.65837 4.95074 -5.80229 
699 1 5.23528 5.45784 -4.96342 
1969 2 5.14772 4.67504 5.65326 
1002 1 4.34766 5.47776 5.69255 
1849 2 -5.36344 -5.2183 -3.92358 
1663 2 -3.71579 -4.57926 -3.92688 
1418 2 -4.78065 -4.74676 -4.11463 
346 1 -4.52313 -5.79211 -4.24971 
1261 2 -3.46468 -4.75888 -3.29364 
508 1 -3.60592 -5.55207 -4.36456 
274 1 -2.42635 -5.25452 -3.81937 
453 1 -2.8568 -5.1909 -4.65011 
855 1 -0.888528 -4.60967 -4.29752 
1151 2 -0.905406 -5.70447 -4.26514 
5 1 -1.90477 -4.8628 -4.31843 
1291 2 -0.0163279 -5.26471 -4.60133 
1338 2 0.988899 -5.32452 -3.4451 
1029 2 0.128182 -5.61494 -3.65573 
1334 2 1.00183 -4.99148 -4.35015 
1082 2 1.87627 -4.63895 -4.15075 
959 1 2.03132 -5.77542 -3.96722 
425 1 2.14507 -5.47423 -4.72714 
487 1 3.0318 -5.69217 -3.45459 
955 1 3.03332 -5.365 -4.19374 
667 1 3.95156 -5.14314 -3.94465 
809 1 5.09346 -4.62474 -3.75691 
1358 2 5.66104 -5.57765 -3.75805 
1773 2 -4.99835 -5.44501 -3.17531 
373 1 -5.53199 -3.86637 -4.75028 
991 1 -5.29506 -3.96281 -3.7436 
1633 2 -4.17192 -4.35226 -4.71826 
273 1 -4.66232 -3.5531 -4.50044 
483 1 -4.55814 -3.92408 -3.39245 
504 1 -3.86788 -3.40416 -4.03078 
1231 2 -2.2646 -3.79605 -4.50504 
1602 2 -3.1757 -4.24723 -4.54947 
1548 2 -2.71541 -4.21496 -3.81639 
1477 2 -1.41203 -3.61697 -4.02071 
1079 2 -1.89005 -4.08084 -3.55286 
1848 2 0.268175 -3.01421 -4.18987 
413 1 0.861049 -3.16125 -5.69227 
467 1 -0.21118 -4.56361 -3.8097 
782 1 0.548971 -4.03048 -4.12725 
902 1 -0.63292 -4.82388 -2.97087 
122 1 1.51806 -3.34992 -4.88972 
938 1 1.33781 -3.73709 -4.12935 
1001 1 2.23856 -3.22286 -4.42038 
1592 2 3.49726 -3.8593 -4.24692 
1528 2 2.73327 -4.43362 -3.79521 
1737 2 3.64248 -3.37491 -5.1365 
131 1 4.55598 -4.54879 -4.36023 
1198 2 3.60373 -4.26973 -3.48059 
1836 2 4.22511 -3.72887 -3.6813 
339 1 5.49995 -4.15195 -4.64241 
1902 2 5.21637 -3.37788 -3.94184 
2010 2 5.83107 -3.33746 -3.38848 
1465 2 -5.82192 -3.05271 -4.23414 
1657 2 -5.33099 -2.87138 -3.61063 
1664 2 -4.81943 -2.57555 -4.21555 
1243 2 -3.62176 -2.32315 -4.0603 
1924 2 -4.16288 -2.59704 -3.39306 
196 1 -2.49829 -2.92346 -4.42049 
1911 2 -3.25345 -2.17252 -3.15543 
524 1 -2.85691 -3.03414 -3.59085 
599 1 -1.98483 -2.89066 -3.79626 
657 1 -1.16778 -2.47461 -3.59617 
1763 2 -0.403365 -2.85332 -5.0501 
1581 2 -0.720853 -3.21527 -4.4514 
1645 2 1.03098 -2.5424 -4.25482 
421 1 -0.214903 -2.28848 -3.54737 
1401 2 1.30261 -2.05765 -5.0834 
1982 2 1.75558 -2.16394 -4.24062 
403 1 2.7722 -2.59033 -4.89082 
1083 2 2.21148 -1.62627 -4.89644 
639 1 3.11045 -2.96488 -4.05812 
1738 2 2.58703 -1.98737 -3.73864 
277 1 3.73531 -2.43676 -4.68574 
602 1 4.40307 -2.56183 -3.92415 
914 1 3.60275 -2.90787 -3.32999 
140 1 5.10064 -2.58211 -3.12273 
562 1 5.38386 -2.15072 -4.01894 
205 1 -4.6455 -1.19956 -4.08343 
66 1 -5.16678 -1.70637 -3.72849 
2001 2 -5.53427 -0.697664 -3.32297 
161 1 -4.09281 -1.3438 -3.37947 
717 1 -3.4975 -1.10105 -3.91002 
1097 2 -3.06619 -1.91432 -4.54507 
1908 2 -2.58031 -1.8647 -3.78506 
419 1 -2.85225 -0.935825 -3.36318 
1478 2 -1.97547 -1.46966 -4.38221 
1537 2 -1.87313 -1.79091 -3.37462 
1296 2 -1.28313 -1.39683 -3.82584 
1006 1 -0.63084 -2.05311 -4.32889 
674 1 0.265599 -1.7573 -4.37858 
1573 2 -1.27815 -1.05876 -4.51418 
1870 2 -0.401948 -1.12521 -3.52635 
1644 2 0.30455 -0.538943 -4.12256 
768 1 0.915145 -1.22584 -4.56664 
427 1 0.741174 -1.81156 -3.63118 
866 1 1.68675 -0.762688 -4.65638 
581 1 1.40648 -1.28089 -3.76316 
1533 2 3.11934 -1.67645 -4.29061 
640 1 2.28109 -1.02186 -3.59896 
1363 2 3.97189 -1.68208 -3.77366 
2048 2 4.72305 -1.28787 -4.16793 
1110 2 5.16393 -1.35882 -3.39444 
1615 2 -5.62128 -0.414133 -4.5237 
1634 2 -5.06314 -0.291153 -3.90425 
1830 2 -4.31818 0.16492 -4.28034 
1111 2 -3.66397 0.0218215 -3.56083 
1184 2 -3.29697 0.409864 -4.28432 
214 1 -2.29518 -0.571991 -3.90422 
701 1 -2.97203 -0.58025 -4.52876 
1643 2 -2.66594 0.365023 -3.57969 
749 1 -1.90064 -0.0713031 -4.4769 
615 1 -1.31772 -0.146086 -3.83912 
408 1 -0.93999 0.436632 -4.33804 
1572 2 0.539255 0.0185676 -5.071 
80 1 -0.204323 0.28834 -3.72119 
1223 2 1.20691 -0.0842183 -4.08475 
1673 2 1.12162 -0.374476 -3.41411 
1021 1 0.564463 0.714501 -4.15071 
1777 2 2.02371 0.0162558 -3.62702 
1412 2 3.25429 0.264187 -3.51478 
299 1 3.30396 -0.701693 -3.83696 
715 1 4.00818 -0.443928 -3.8868 
2008 2 3.70665 0.0788581 -2.57547 
32 1 5.93132 0.627433 -4.23162 
1163 2 5.73828 -0.740767 -3.93657 
872 1 4.77051 0.143027 -4.29385 
109 1 5.26843 0.135418 -3.63584 
818 1 -5.4265 0.615583 -3.30983 
278 1 -4.98671 0.941494 -3.89433 
1728 2 -5.13541 1.8944 -3.97103 
338 1 -4.26575 1.21154 -4.4733 
230 1 -3.64186 1.09561 -3.62016 
900 1 -4.41574 0.896413 -3.30131 
689 1 -3.19253 1.75156 -4.24744 
903 1 -2.52385 1.67377 -3.60767 
1550 2 -2.28207 0.825692 -4.2424 
1050 2 -1.06469 1.26907 -3.72412 
1436 2 -1.67486 0.759147 -3.62039 
1149 2 -0.303446 1.21469 -3.32081 
1364 2 -0.566944 1.7463 -4.66579 
1683 2 0.107245 1.6172 -4.04922 
594 1 -0.246603 0.757804 -4.69679 
50 1 1.31063 1.06986 -3.80632 
90 1 0.817151 0.520745 -3.22581 
1893 2 0.674738 1.62831 -3.12568 
894 1 2.87776 1.51192 -3.86714 
171 1 2.23945 1.14732 -3.4454 
874 1 1.66238 0.830378 -2.99021 
1910 2 3.16695 0.820818 -5.19942 
1172 2 3.61874 0.879726 -4.2569 
1861 2 4.43655 1.07218 -3.86293 
1132 2 5.5278 1.51715 -3.8825 
1654 2 5.04677 1.02884 -3.12365 
1810 2 5.98566 1.92468 -4.48768 
7 1 -5.72349 2.74858 -3.53958 
1482 2 -4.40946 2.18683 -4.10383 
1512 2 -3.72509 2.15605 -3.26159 
1485 2 -3.55012 2.73291 -4.26577 
369 1 -4.12129 3.32077 -3.26889 
1794 2 -2.37497 3.01444 -3.85115 
1015 1 -2.18075 2.02907 -4.2107 
310 1 -1.46095 2.57467 -4.65001 
1607 2 -1.75391 3.05149 -3.19447 
686 1 -1.40921 2.19333 -3.68379 
208 1 -0.734608 2.68935 -4.25124 
843 1 0.253017 2.96006 -3.96424 
301 1 -0.328233 2.49017 -3.5204 
1187 2 1.16034 2.11591 -3.53805 
240 1 0.767734 2.94135 -3.13623 
1340 2 1.7221 1.99807 -2.91042 
394 1 2.0699 3.32992 -3.2326 
2039 2 2.97517 2.85669 -4.04113 
1999 2 1.59752 2.42825 -4.29665 
1214 2 2.20272 2.33951 -3.62482 
731 1 3.25222 1.4041 -3.10374 
1011 1 2.73018 1.74439 -4.70723 
621 1 3.77692 1.97576 -3.73994 
1522 2 3.59914 2.95485 -3.36481 
631 1 5.23404 2.51032 -3.61604 
726 1 4.31515 2.35927 -4.04653 
702 1 4.70579 1.98963 -3.17823 
188 1 -5.51466 3.14973 -4.36265 
1048 2 -4.5106 4.57182 -4.12964 
1278 2 -5.85441 4.0325 -3.97759 
69 1 -4.7311 3.25878 -3.80385 
446 1 -3.64492 3.76432 -4.00888 
755 1 -3.07992 4.17659 -4.52217 
632 1 -2.45865 4.80031 -5.01701 
250 1 -2.66927 3.97389 -3.74386 
577 1 -2.06263 4.50499 -4.19492 
1926 2 -1.20619 3.58668 -3.81365 
1161 2 -0.649805 4.06399 -4.49359 
1354 2 0.460351 4.2901 -4.22396 
1372 2 -0.210587 3.90224 -3.75176 
885 1 0.731223 3.35482 -4.55247 
1668 2 1.21648 4.27546 -3.72251 
478 1 1.38095 3.24531 -3.78401 
34 1 2.40705 3.71337 -3.81234 
653 1 3.08875 4.31412 -4.16783 
835 1 3.12433 3.8035 -3.38318 
1562 2 4.12972 3.42812 -4.12109 
1977 2 4.40423 3.08229 -3.1517 
775 1 3.98343 4.54415 -4.41962 
262 1 3.98771 4.31415 -3.52423 
1349 2 5.7532 4.41576 -4.65263 
1439 2 5.16663 3.7109 -3.61923 
412 1 -5.2123 5.49771 -4.10835 
662 1 -5.57173 5.15262 -3.45969 
342 1 -4.66575 5.5005 -3.3713 
1353 2 -3.53762 4.97597 -4.11892 
1335 2 -3.15336 4.83276 -3.24189 
255 1 -3.87789 5.75542 -3.55078 
1038 2 -2.69001 5.30229 -3.79142 
340 1 -0.933748 4.8351 -3.85069 
1757 2 -2.09344 5.2047 -3.08308 
1329 2 -1.98284 5.72737 -4.24074 
1236 2 -1.57147 5.66843 -3.60908 
87 1 -0.383388 5.28999 -4.52267 
612 1 0.0623805 5.11985 -3.8004 
1033 2 1.78558 4.74607 -4.16446 
237 1 1.23119 5.61556 -3.91631 
82 1 1.72553 5.43414 -3.15369 
1042 2 2.20474 4.65419 -3.36829 
1593 2 2.50859 5.15128 -4.30154 
1499 2 3.12178 5.06693 -3.48886 
1764 2 3.18824 5.62878 -4.62649 
1272 2 5.09982 5.79805 -3.15504 
1425 2 4.62283 -5.82295 -4.17757 
1714 2 3.76639 5.44134 -3.94676 
946 1 4.75241 4.89579 -4.26998 
825 1 5.81154 5.36159 -4.24323 
443 1 5.45381 5.02298 -3.70886 
2016 2 -4.46537 -4.91861 -3.42509 
1534 2 -4.62238 -5.69035 -2.3315 
864 1 -5.69928 -4.93416 -2.46182 
1489 2 -5.45554 5.78909 -2.19515 
1312 2 -3.66042 -5.42369 -1.91241 
1394 2 -4.03811 -5.33313 -2.76304 
1197 2 -2.47782 -4.48946 -2.93399 
1285 2 -3.03964 -4.92812 -2.29507 
260 1 -2.037 -5.46717 -3.01998 
1807 2 -1.7047 -4.28955 -2.60923 
934 1 -1.77647 -5.71494 -2.10235 
459 1 -1.23337 -5.39231 -2.65527 
326 1 -1.36601 -5.00742 -3.60429 
1818 2 0.255876 -5.6799 -2.88303 
147 1 0.204755 -4.60932 -2.5592 
1928 2 1.01623 -5.66521 -2.49617 
249 1 1.09498 -4.60919 -2.39071 
1984 2 1.94416 -5.30685 -2.51379 
1319 2 1.69647 -5.03843 -3.38849 
2019 2 2.82697 -5.01147 -2.08543 
41 1 2.44234 5.88573 -2.83128 
461 1 3.18112 -5.90785 -2.39677 
847 1 3.7061 -5.49896 -3.08951 
1765 2 3.28934 -4.6115 -2.7602 
586 1 4.24898 -5.57269 -2.36845 
153 1 4.52293 -5.08404 -3.2422 
542 1 5.02753 -5.10235 -2.46017 
284 1 5.52155 -4.76165 -3.01036 
878 1 -5.52325 -4.37777 -3.09002 
280 1 5.89349 -4.32669 -3.94273 
1201 2 -5.43971 -3.74924 -1.89494 
411 1 -3.91053 -4.09727 -2.61933 
798 1 -4.74143 -4.22162 -2.66385 
246 1 -3.42618 -3.56634 -3.16099 
753 1 -2.79722 -3.58403 -2.61222 
1402 2 -0.96969 -3.78617 -3.0739 
1452 2 -0.247679 -3.45527 -3.60413 
1280 2 -0.266732 -3.71884 -2.36308 
1457 2 0.261176 -3.55251 -2.96352 
107 1 0.527546 -4.43928 -3.36306 
661 1 1.38712 -4.17723 -3.14906 
321 1 2.92553 -3.47971 -3.19785 
20 1 2.17733 -3.50376 -3.65303 
550 1 2.15733 -3.76899 -2.65703 
1563 2 2.48185 -4.76062 -3.06227 
1844 2 4.12451 -4.10341 -2.87921 
137 1 3.55405 -3.32973 -2.44971 
385 1 2.91169 -3.71961 -2.23249 
1240 2 5.69544 -3.71835 -2.41287 
1655 2 4.96509 -3.72006 -3.10009 
1817 2 -5.44561 -3.25332 -2.7063 
1521 2 4.81579 -4.08534 -2.26007 
968 1 5.79788 -2.23376 -3.41611 
592 1 -5.48275 -2.06474 -2.99753 
734 1 -5.36524 -2.40447 -2.09529 
1871 2 -4.65172 -2.99333 -3.00461 
1545 2 -4.60234 -3.29644 -2.11147 
2007 2 -3.82854 -2.79133 -2.4909 
313 1 -2.08661 -3.15798 -3.0829 
1867 2 -2.43418 -2.13963 -2.69502 
1052 2 -2.95147 -2.71632 -2.24876 
388 1 -1.36612 -2.88858 -2.75545 
597 1 -0.580267 -2.52968 -2.99343 
11 1 -0.253596 -2.71631 -2.28695 
287 1 0.41081 -2.37448 -2.77695 
1580 2 1.23924 -3.17751 -2.67962 
1991 2 0.878781 -2.98126 -3.4486 
1263 2 1.75252 -2.65431 -3.39927 
998 1 1.10302 -2.18493 -2.38099 
1066 2 2.70088 -2.4003 -2.99841 
1326 2 3.55003 -1.94316 -3.26593 
928 1 4.2622 -3.34591 -1.91277 
1123 2 3.26717 -2.50101 -2.10744 
1973 2 4.08422 -2.03987 -2.41078 
754 1 4.25247 -2.92641 -2.81589 
471 1 5.67172 -2.51329 -2.38974 
296 1 4.97166 -2.95744 -2.15516 
636 1 -4.68187 -1.78526 -2.87188 
1826 2 -4.95038 -0.793838 -2.71882 
1946 2 -5.48958 -1.19656 -1.97905 
1792 2 -4.52264 -0.865405 -2.10977 
291 1 -3.92836 -1.71961 -2.18306 
767 1 -3.36383 -1.29764 -2.66066 
704 1 -2.2994 -1.00812 -2.66249 
234 1 -1.74574 -0.666659 -3.30253 
37 1 -1.7815 -1.00754 -1.95472 
1781 2 -1.48022 -1.73481 -2.50605 
1635 2 -0.844475 -1.46777 -2.95522 
1517 2 -0.0115928 -1.45167 -2.36245 
1456 2 0.299654 -0.96178 -3.17371 
1832 2 0.955864 -1.03817 -2.43963 
705 1 1.45608 -1.72934 -3.05009 
377 1 1.91851 -1.85409 -2.06941 
106 1 2.24393 -1.37293 -2.69802 
700 1 3.07441 -1.1666 -2.92152 
1030 2 4.5732 -1.65908 -3.09772 
125 1 3.57215 -1.20248 -2.20717 
1350 2 5.15865 -1.49401 -2.40804 
1641 2 5.85157 -1.1399 -2.7709 
692 1 -4.76467 0.547302 -2.68698 
654 1 -5.45621 0.100388 -2.35007 
1754 2 -4.41951 -0.245498 -3.20576 
1876 2 -3.05172 -0.0668965 -2.92517 
824 1 -4.22451 0.445002 -2.11397 
2035 2 -3.8462 -0.424741 -2.61737 
1589 2 -3.30997 -0.565402 -1.83834 
1206 2 -2.56818 -0.200929 -2.31732 
1834 2 -1.97018 0.31456 -2.91198 
898 1 -1.14609 -0.630841 -2.47847 
1761 2 -1.5625 0.262362 -2.24044 
625 1 -0.38575 -0.480402 -2.20976 
499 1 -0.781264 -0.157891 -3.19072 
630 1 -0.872715 -0.823599 -1.61442 
776 1 0.164757 -0.0504649 -2.86537 
447 1 0.588277 -0.254825 -1.88421 
1568 2 2.39487 -0.509965 -2.14404 
1502 2 1.67495 -0.513782 -2.81562 
1696 2 2.70407 -0.0750359 -2.95169 
1314 2 3.2893 -0.236747 -2.07664 
867 1 4.55602 -0.758511 -2.28665 
846 1 3.93871 -0.791884 -2.94542 
1320 2 4.5763 0.437033 -2.62796 
297 1 5.79288 0.132538 -3.00644 
334 1 4.68521 -0.437998 -3.43858 
241 1 5.26802 -0.31129 -2.53093 
1858 2 5.17273 0.744609 -2.06498 
1877 2 -5.7142 1.54687 -3.24491 
1986 2 -5.05971 1.58316 -2.73295 
1720 2 -4.45251 1.83777 -3.30236 
1724 2 -4.51071 1.35463 -1.77271 
1508 2 -5.47471 1.00045 -1.77204 
1282 2 -3.9106 1.78094 -2.41122 
613 1 -3.68662 0.801897 -2.75321 
94 1 -3.014 0.867229 -2.10977 
164 1 -3.01626 1.26335 -3.1041 
259 1 -2.41872 1.17465 -2.65256 
1104 2 -0.977203 0.713133 -2.86609 
489 1 -1.89165 1.66061 -3.07725 
189 1 -1.39136 1.5727 -2.44277 
1310 2 0.148935 1.18373 -2.68103 
2022 2 -0.400891 0.663485 -2.1385 
585 1 -0.265526 2.01024 -2.18904 
963 1 1.16334 0.324894 -2.38659 
1386 2 1.16175 1.43436 -2.27613 
1838 2 2.07531 1.53667 -1.86447 
464 1 1.94389 0.642757 -2.23461 
232 1 2.73074 0.971273 -2.6559 
1953 2 4.0097 0.600181 -3.32812 
110 1 3.6585 1.21626 -2.41417 
920 1 4.53166 1.45803 -2.1379 
1803 2 5.85882 1.05805 -2.43448 
194 1 5.20361 1.99256 -2.49702 
811 1 -5.35608 2.43821 -2.11612 
926 1 -4.95728 2.85571 -2.99999 
276 1 -3.62588 3.00736 -2.47165 
516 1 -4.56695 2.71444 -2.28685 
323 1 -3.09781 2.96451 -1.81467 
1938 2 -3.07301 2.13641 -2.63628 
1415 2 -3.04133 2.72111 -3.40434 
1476 2 -2.40377 2.53186 -2.73747 
1689 2 -1.11759 3.15734 -2.70859 
719 1 -0.848965 2.10365 -2.92272 
134 1 0.301049 2.41067 -2.64943 
1616 2 0.0869734 3.40266 -2.39372 
937 1 1.55923 2.93203 -2.64754 
945 1 0.971912 2.41371 -2.16472 
896 1 2.13369 2.79478 -2.0267 
1642 2 2.55517 1.93792 -2.53097 
1461 2 3.37012 2.16242 -2.18142 
1994 2 2.99007 2.57007 -2.98882 
1105 2 3.90435 2.54179 -2.57892 
381 1 5.86446 2.47457 -2.82268 
944 1 4.00811 1.65039 -2.89346 
1072 2 5.60449 3.25822 -2.15768 
1825 2 4.84631 3.00256 -2.42771 
1575 2 -5.13477 4.27349 -3.71582 
1636 2 -5.74844 3.67778 -3.11862 
1527 2 -5.34289 3.56261 -2.41251 
579 1 -5.6077 4.5433 -2.13509 
1413 2 -3.9519 4.54337 -3.39822 
1419 2 -4.78215 4.07437 -2.87853 
1971 2 -3.76772 3.84412 -1.61339 
989 1 -3.32439 3.5624 -3.05424 
772 1 -2.18061 3.93672 -3.03693 
1601 2 -2.96529 4.43668 -1.91816 
26 1 -2.62641 3.60143 -2.45577 
17 1 -1.5017 4.38175 -3.41507 
733 1 -2.32634 3.42558 -1.66583 
1304 2 -0.606099 3.46943 -3.0556 
568 1 -1.81446 3.97022 -2.18007 
1183 2 0.490478 3.90337 -3.26997 
361 1 -1.16126 4.2548 -2.5096 
1071 2 1.50537 4.25279 -2.97726 
1981 2 1.02026 3.67851 -2.42408 
736 1 0.632336 4.67603 -2.09832 
448 1 2.67 3.42783 -2.44495 
1854 2 2.8039 4.66809 -2.67088 
1428 2 2.04266 4.29951 -2.39698 
552 1 3.47601 3.78939 -2.58019 
432 1 4.17878 3.98332 -2.73221 
370 1 4.71886 4.71353 -3.56884 
1333 2 5.3144 3.3384 -2.87506 
166 1 4.98513 4.30544 -2.67533 
993 1 -5.16271 4.98474 -2.82607 
952 1 -4.68413 4.74198 -1.98592 
2000 2 5.58425 5.58903 -2.25565 
1275 2 -3.51327 4.36167 -2.50944 
589 1 -4.40016 5.24201 -2.63032 
1008 1 -2.97364 -5.75046 -3.28743 
119 1 -3.44746 5.61274 -2.59149 
295 1 -2.58986 -5.81739 -2.51541 
1957 2 -2.62281 4.74622 -2.57973 
1339 2 -1.85542 5.01054 -1.99145 
1814 2 -1.02205 4.98435 -1.67145 
1543 2 -1.27952 5.40043 -2.5604 
836 1 -0.61043 4.58233 -3.02596 
1571 2 -0.682066 5.83119 -3.51169 
564 1 0.178091 4.72964 -2.83701 
1503 2 -0.409377 5.63507 -2.78602 
123 1 0.781089 5.23487 -3.20791 
1742 2 0.399703 5.78518 -1.93215 
652 1 1.37969 5.20657 -2.358 
490 1 2.23754 5.30276 -2.0123 
1126 2 3.61716 5.02353 -2.59464 
1318 2 4.14923 5.43193 -3.16671 
1090 2 4.21291 4.92392 -2.0267 
1178 2 5.03789 5.15215 -1.59958 
918 1 5.73078 4.7051 -2.88979 
1604 2 5.98287 -5.7475 -2.96351 
1411 2 4.82115 5.31439 -2.43712 
666 1 -4.25708 -4.52703 -1.88866 
724 1 -5.06434 -4.84606 -1.97817 
65 1 -5.47415 -5.24987 -1.31238 
1404 2 -2.89218 -5.26678 -1.47534 
366 1 -4.6442 -4.96796 -1.18141 
890 1 -4.06767 -5.03621 -0.378498 
1783 2 -2.08823 -4.74699 -1.99257 
1454 2 -1.86395 -5.13336 -0.947031 
1106 2 -1.34542 -4.60448 -1.36709 
328 1 0.278257 -5.01368 -1.76893 
678 1 -0.563704 -5.29698 -2.10476 
245 1 0.486893 -5.31643 -0.701091 
1051 2 -0.325285 -4.51345 -0.485994 
85 1 -0.214492 -5.46528 -1.25209 
1189 2 1.78251 5.7466 -0.987125 
100 1 0.956802 -4.76716 -1.52463 
1199 2 1.74762 -5.56296 -1.80421 
1828 2 2.55444 -5.54307 -1.22522 
2004 2 3.60813 -5.07811 -1.53005 
1749 2 3.35192 -5.42886 -0.807303 
1013 1 4.87194 -5.59645 -1.52402 
182 1 5.57881 -5.60644 -0.850742 
452 1 5.70107 -5.3707 -1.88538 
2017 2 4.42244 -4.84141 -1.17986 
1387 2 5.74219 -4.09215 -1.78166 
1217 2 -5.33009 -4.1419 -1.19082 
1948 2 -4.62308 -3.73365 -1.40375 
2002 2 5.71681 -4.54764 -0.870905 
21 1 -3.78303 -4.59405 -1.18465 
1442 2 -3.94937 -3.67542 -0.687788 
1289 2 -3.10107 -3.18386 -0.924831 
71 1 -2.59113 -3.91065 -1.47923 
844 1 -3.28338 -4.02158 -1.88105 
816 1 -3.02624 -4.39801 -0.837492 
677 1 -2.1191 -3.47167 -2.1366 
1047 2 -0.952202 -4.17136 -2.17207 
986 1 -1.67593 -3.64995 -1.14535 
1878 2 -0.597389 -4.23212 -1.3121 
1613 2 0.0480978 -4.01744 -1.63831 
1896 2 0.725937 -3.59071 -2.08642 
1246 2 0.481297 -4.22693 -0.527353 
1894 2 1.61538 -3.26888 -1.7704 
1753 2 0.756751 -3.88573 -1.19737 
569 1 1.82401 -4.74409 -1.1924 
286 1 2.75704 -4.21693 -1.43637 
1019 1 1.93553 -4.27506 -1.92805 
1985 2 2.23808 -3.41002 -1.15724 
1530 2 3.96913 -4.55983 -2.20874 
522 1 3.65514 -3.89983 -1.53698 
216 1 3.12273 -4.33724 -0.774519 
605 1 4.55104 -3.76614 -1.04414 
1767 2 5.11852 -4.48486 -1.59678 
275 1 -5.03196 -2.56513 -1.23788 
219 1 -5.31562 -3.12341 -0.619428 
1400 2 -3.77007 -3.13855 -1.49845 
848 1 -3.30029 -1.96705 -1.55138 
285 1 -4.58182 -2.13272 -1.95197 
58 1 -4.03383 -2.15451 -1.17519 
532 1 -4.33407 -2.73854 -0.464924 
1505 2 -2.65731 -2.72948 -1.5327 
1682 2 -1.97319 -2.3491 -1.95013 
324 1 -1.24298 -3.27261 -1.88958 
1391 2 -1.93339 -2.66029 -0.934926 
1069 2 -1.09129 -2.32182 -1.23429 
573 1 -0.33766 -2.88274 -1.44254 
1808 2 -0.425507 -2.12444 -0.622525 
566 1 0.452147 -2.55703 -1.69072 
347 1 0.910536 -2.73342 -0.976151 
211 1 1.47804 -2.44447 -1.46397 
1923 2 2.07159 -2.76832 -2.54436 
1947 2 2.61643 -2.90465 -1.78586 
199 1 2.33048 -2.13083 -1.22778 
1708 2 3.96388 -2.53088 -1.51028 
1787 2 4.5227 -2.72353 -0.885888 
1492 2 3.35845 -2.96989 -1.12313 
311 1 5.28734 -3.17459 -1.42512 
314 1 5.78667 -3.45793 -0.697901 
213 1 -5.90098 -2.82051 -1.55524 
1698 2 4.74206 -1.9663 -1.82931 
1978 2 5.19076 -2.21831 -1.16277 
1167 2 -5.65489 -1.77009 -1.09962 
1299 2 -4.81125 -1.29475 -1.28601 
1972 2 -3.83359 -1.06904 -1.31442 
1025 2 -3.26248 -1.14999 -0.572931 
1940 2 -4.22769 -1.34524 -0.629545 
117 1 -2.83474 -1.47865 -2.03343 
917 1 -2.74251 -1.92612 -0.985291 
548 1 -2.16303 -1.48512 -1.38502 
59 1 -1.34518 -1.29131 -1.221 
948 1 -1.85128 -1.70202 -0.554853 
1086 2 -0.816159 -1.89813 -1.9993 
1819 2 -0.147643 -1.72831 -1.39791 
468 1 -0.5582 -0.94376 -0.806551 
1916 2 0.522704 -1.44174 -1.78299 
2027 2 1.69115 -0.914075 -1.81655 
2046 2 1.29193 -1.47957 -1.27243 
1360 2 2.20679 -1.1002 -1.10556 
691 1 2.80721 -1.63011 -1.89818 
217 1 2.8728 -2.11381 -0.642469 
626 1 4.12006 -1.22352 -1.52461 
962 1 3.4056 -1.6178 -1.21961 
198 1 4.79163 -1.28855 -0.947646 
1279 2 5.68184 -1.62379 -1.63845 
279 1 5.10886 -0.66508 -1.63786 
737 1 5.64403 -0.893273 -0.802152 
958 1 -5.26098 -0.364795 -1.07771 
518 1 5.90701 -0.283889 -1.80505 
876 1 -4.73689 0.0223521 -1.54737 
1468 2 -5.75156 0.405569 -0.694155 
912 1 -3.58843 0.377031 -1.57899 
472 1 -4.1915 -0.119313 -0.927979 
1432 2 -2.67293 -0.626291 -1.21456 
921 1 -3.11491 0.197822 -0.869912 
1098 2 -2.00881 -0.677788 -0.550037 
2043 2 -2.23113 -0.158246 -1.64848 
1067 2 -1.46982 -0.175082 -1.13109 
1735 2 -1.03358 0.288276 -1.61168 
799 1 -0.0466814 -0.56398 -1.35802 
1213 2 -0.499866 0.246275 -0.834365 
160 1 0.909584 -0.450693 -1.01405 
886 1 1.58158 -0.00201245 -1.61036 
837 1 2.02692 -0.12102 -0.907781 
1897 2 2.8198 -0.644524 -1.48915 
243 1 2.37239 0.46357 -1.51166 
84 1 3.35059 0.684241 -1.02284 
1952 2 4.06336 0.0346445 -1.66434 
1680 2 3.57531 -0.401207 -1.15231 
1220 2 5.61522 0.506379 -1.39518 
2030 2 4.79477 0.225767 -1.15822 
1059 2 -5.04984 0.861419 -1.08513 
298 1 -5.76397 1.77627 -1.02248 
2038 2 -3.8802 1.21782 -1.09209 
1520 2 -3.44379 1.73786 -1.67488 
357 1 -2.48109 0.758553 -1.4181 
1170 2 -2.74951 1.68864 -0.981672 
397 1 -1.95369 1.21681 -1.86325 
919 1 -1.32276 1.09368 -1.13195 
303 1 -1.95837 0.632363 -0.694812 
115 1 -0.881572 1.51587 -1.6768 
660 1 -0.0745828 1.52069 -1.10228 
1860 2 0.090027 0.465481 -1.35516 
1297 2 0.493675 0.936242 -1.87953 
1944 2 1.33049 1.00828 -1.43203 
1215 2 0.816259 0.633309 -0.880745 
1967 2 2.83976 1.88562 -1.63981 
1017 1 3.08863 0.807917 -1.89089 
1158 2 2.55954 1.4532 -0.896911 
1368 2 3.63263 2.11193 -1.30904 
104 1 4.03101 1.10169 -1.51529 
16 1 5.79657 1.97229 -1.74954 
351 1 5.10243 1.46769 -1.39395 
761 1 -4.94206 2.13448 -1.3553 
1330 2 -5.11348 3.44855 -1.68821 
966 1 -4.17489 2.10466 -0.735118 
322 1 -3.85612 2.56977 -1.44274 
1839 2 -2.40713 2.15254 -2.01719 
460 1 -3.2795 2.64551 -0.803802 
520 1 -2.40626 2.93377 -1.04042 
1959 2 -1.65952 2.72995 -2.25191 
2021 2 -1.1527 2.63869 -1.48328 
1092 2 -1.9031 2.13894 -1.33847 
1756 2 -0.500934 2.96512 -2.04952 
910 1 0.407745 2.06815 -1.58815 
1247 2 -0.0710109 2.99142 -1.32089 
747 1 1.61514 2.33561 -1.50286 
1107 2 1.32966 3.24295 -1.062 
823 1 1.07457 1.96407 -0.964379 
143 1 2.35227 2.48794 -1.03523 
1866 2 3.37854 1.67126 -0.716995 
1026 2 5.04333 2.7973 -1.60903 
1686 2 4.31202 2.48242 -1.86239 
906 1 3.50023 3.21877 -1.11106 
1662 2 5.83075 2.87928 -1.30847 
974 1 -4.85672 4.53592 -1.15987 
679 1 -4.04517 4.7319 -0.989028 
1287 2 -4.26921 3.81325 -2.23589 
1325 2 -3.09932 4.0272 -0.952065 
1669 2 -4.43367 3.37096 -1.19392 
1853 2 -4.55629 3.08632 -0.40934 
1348 2 -2.21593 4.51102 -1.3795 
111 1 -1.53104 3.43017 -1.22416 
86 1 -0.845304 3.86022 -1.71161 
418 1 -0.437624 3.74552 -0.838492 
1265 2 -1.88441 3.99539 -0.416673 
1679 2 0.648988 3.34555 -1.69211 
165 1 -0.247493 4.28518 -2.14938 
905 1 -0.00450314 4.23881 -1.37853 
1997 2 1.63648 3.70931 -1.79682 
187 1 0.924566 4.28419 -1.20616 
181 1 2.8525 2.98652 -1.61246 
1968 2 2.14043 3.43223 -0.861125 
1913 2 2.43653 4.00632 -1.56501 
1868 2 3.21138 4.52907 -1.88441 
1405 2 3.22227 4.2609 -0.773023 
1234 2 3.93396 4.47633 -1.33925 
650 1 3.58752 3.29654 -1.83061 
355 1 5.26432 4.29103 -1.82066 
506 1 -5.7623 4.09463 -1.28724 
582 1 4.41798 3.73554 -1.88104 
258 1 5.31354 3.68158 -0.880093 
1918 2 -5.21799 5.67761 -1.409 
2025 2 -5.34887 5.09876 -0.547658 
1362 2 -4.46188 5.56775 -0.516706 
1122 2 -4.3506 5.86357 -1.30039 
1822 2 -3.6399 -5.76447 -0.81271 
961 1 -3.8548 5.22356 -1.94429 