ITEM: TIMESTEP
19400
ITEM: NUMBER OF ATOMS
2048
ITEM: BOX BOUNDS pp pp pp
-5.9348272799907340e+00 5.9348272799907340e+00
-5.9348272799907340e+00 5.9348272799907340e+00
-5.9348272799907340e+00 5.9348272799907340e+00
ITEM: ATOMS id type x y z 
1849 2 5.71524 -5.1199 -5.23971 
29 1 -4.72746 -5.19418 5.48893 
1633 2 -4.43586 -4.51201 -4.77366 
805 1 -3.2522 -5.0412 -5.43283 
554 1 -4.1207 -5.37054 -5.53925 
346 1 -3.92474 -5.51896 -4.74737 
247 1 -2.96403 -4.57403 5.76324 
453 1 -2.24612 -4.75771 -5.42347 
2029 2 -2.2589 5.96699 -5.36344 
1151 2 -1.44992 -5.76181 -5.02285 
1694 2 -1.50216 -5.4407 -5.87277 
1542 2 -0.650567 -5.11421 -5.66367 
1429 2 0.12583 -4.84585 -5.42359 
648 1 0.248232 -5.73881 -5.97101 
575 1 1.11614 -5.46462 -5.76833 
425 1 1.16031 -5.78908 -4.98968 
442 1 1.90644 -5.46048 -5.326 
19 1 2.61595 -5.06046 -5.46141 
1192 2 4.37727 -5.74553 -5.02356 
1875 2 3.19272 5.76599 -5.29335 
131 1 3.3111 -5.2051 -4.59777 
1799 2 4.90505 -5.26176 -5.46313 
1227 2 -5.28242 -4.82146 -5.00063 
75 1 -5.38234 -3.37495 -5.42764 
353 1 -4.42086 -3.21848 -5.02961 
1103 2 -4.42844 -4.39284 -5.52696 
1046 2 -3.5567 -4.20435 -4.85514 
1711 2 -2.62965 -4.08289 -4.64566 
1630 2 -2.91778 -3.6681 -5.27602 
1617 2 -2.58537 -3.3199 -5.81515 
91 1 -1.56279 -4.4135 -5.52259 
2009 2 -2.02483 -3.50596 -4.96246 
855 1 -0.879869 -4.20601 -5.12785 
202 1 -0.242183 -3.77952 -5.63653 
227 1 0.635712 -3.60387 -4.93296 
1260 2 1.68174 -4.15101 -5.35684 
1709 2 0.898646 -4.40845 -5.50221 
122 1 1.50792 -3.36624 -4.6208 
1678 2 3.38929 -3.68164 -5.1047 
1887 2 2.43938 -3.79526 5.77758 
1486 2 2.5241 -3.97224 -5.17641 
1737 2 4.21071 -3.41801 -4.73342 
242 1 3.47435 -4.58073 -5.45045 
223 1 4.79504 -4.4671 -4.96833 
511 1 5.67214 -3.99546 -5.00128 
481 1 4.19038 -4.28182 -5.63833 
1872 2 -5.22658 -2.12319 -5.79231 
1937 2 -5.46726 -2.35218 -5.05885 
1750 2 5.76175 -2.26458 -5.91213 
1475 2 -4.47111 -1.83054 -5.67106 
218 1 -3.34036 -2.71605 -4.95971 
269 1 -3.87808 -2.79817 -5.53596 
664 1 -2.50686 -2.20242 -5.33636 
236 1 -1.56286 -2.13208 -5.01351 
1379 2 -1.71639 -3.04764 -5.654 
1763 2 -0.754511 -2.97686 -5.04377 
830 1 -0.798389 -1.81645 -4.73431 
1555 2 0.662466 -2.1927 -5.46887 
1848 2 0.618019 -2.54426 -4.58498 
1525 2 -0.203339 -2.57465 -5.36148 
1645 2 1.40431 -2.11616 -5.00137 
413 1 1.25434 -3.16428 -5.55225 
547 1 3.13098 -3.15454 -3.93355 
136 1 2.18077 -3.17608 -4.24343 
485 1 2.69432 -2.47676 -5.85796 
939 1 2.22002 -2.95803 -5.12829 
1483 2 4.10143 -3.22084 -5.53867 
475 1 2.94696 -2.6404 -4.84913 
2032 2 5.04069 -2.84189 -5.51782 
1995 2 5.07863 -3.33973 -4.41239 
1465 2 5.70657 -2.7788 -4.99002 
740 1 -5.06602 -0.888566 -5.64609 
609 1 -5.75786 -1.40251 -5.02581 
1745 2 -3.64664 -1.77952 -4.99561 
161 1 -3.91741 -0.892464 -4.70788 
1097 2 -2.49384 -1.52787 -4.64646 
1271 2 -2.9701 -1.37783 -5.5098 
1345 2 -1.86742 -1.03756 -5.02294 
622 1 -0.591354 -1.58249 -5.42872 
1975 2 -1.7428 -1.36636 -4.06718 
151 1 -1.34291 -1.72522 -5.8526 
8 1 0.147637 -1.45281 -4.99184 
768 1 0.717304 -0.901258 -5.86195 
1982 2 2.50042 -1.83909 -4.49199 
1401 2 1.48414 -1.78183 -5.84556 
788 1 0.905949 -1.00867 -5.15879 
1190 2 2.1347 -1.79204 -5.23476 
1363 2 3.14047 -1.47785 -5.20001 
904 1 3.5968 -2.23072 -5.44882 
1676 2 3.40481 -0.960919 5.78512 
1775 2 4.22514 -1.34042 -4.54189 
33 1 4.43923 -2.13642 -5.27156 
1615 2 -5.41457 -0.0295296 -5.12996 
771 1 -4.18591 -0.699859 -5.56301 
833 1 -3.24837 -0.53204 -5.00722 
1346 2 -3.51367 0.314086 -4.55536 
1830 2 -4.20327 0.393965 -5.35379 
505 1 -2.87902 -0.0808765 -5.66366 
451 1 -2.28793 -0.0480692 -4.74699 
701 1 -2.81488 -0.582514 -4.32631 
1171 2 -0.910335 -0.615393 -5.10171 
827 1 -2.14042 0.364025 -5.45559 
789 1 -1.35651 0.554348 -5.19597 
1963 2 -0.0988482 -0.47142 -4.85101 
1804 2 -0.0602766 -0.15902 -5.67372 
1572 2 0.690883 0.00164304 -5.23112 
1852 2 1.59953 0.101484 -4.91442 
581 1 1.7483 -0.976697 -4.83422 
916 1 1.99378 -0.639687 -5.52908 
866 1 2.52448 -0.631185 -4.85359 
1180 2 2.1221 0.514589 -5.3228 
31 1 2.58039 -0.0564266 5.87143 
560 1 3.26333 0.0314333 -5.59191 
60 1 4.13482 0.156545 -5.08234 
960 1 4.09633 0.530456 5.853 
1332 2 4.08583 -0.999021 -5.39074 
2036 2 5.06892 -0.839175 -4.76089 
1623 2 5.70036 -0.0504047 -5.83744 
469 1 4.98473 0.692069 -5.33321 
1163 2 5.69425 -0.397582 -5.01238 
656 1 -5.464 0.925904 -4.74523 
915 1 -5.3166 1.3045 -5.60979 
2028 2 -3.95132 0.965955 -5.89092 
752 1 -4.55651 1.29789 -5.00619 
190 1 -4.10285 1.18993 -4.12674 
1962 2 -3.17558 0.836582 -5.19484 
1343 2 -2.4444 1.42332 -5.30965 
517 1 -0.766146 0.852124 -5.64973 
1298 2 -1.69803 1.71927 -5.83783 
1054 2 -1.03448 1.82967 -5.17571 
1256 2 -1.76114 1.32955 -4.84381 
254 1 0.455961 1.14163 -5.55609 
594 1 -0.393252 0.626505 -4.90558 
769 1 -0.196013 1.18233 5.61389 
842 1 0.878297 1.81662 5.77334 
1021 1 1.45833 1.4887 -5.39394 
1785 2 2.01634 0.909024 5.75788 
1910 2 2.90955 0.778059 -4.80213 
1412 2 2.9376 1.0731 -5.65278 
551 1 1.44789 1.24488 -4.58574 
1470 2 3.61062 1.34094 -5.37528 
1845 2 3.52965 1.49844 5.63767 
302 1 5.7656 0.914194 -5.55203 
1204 2 4.37114 1.71258 -5.54712 
1068 2 4.49364 1.37001 -4.8071 
1497 2 5.24438 1.90751 -5.40865 
1403 2 -5.10719 2.07655 -4.72307 
1717 2 -5.78914 2.37033 -5.74171 
882 1 -5.61614 3.00393 -4.47959 
697 1 -3.7606 1.77992 -5.01499 
1377 2 -4.34777 2.60084 -4.85428 
1142 2 -3.24192 3.28062 -5.24886 
1716 2 -3.99495 3.09847 -5.4919 
982 1 -2.06073 2.57004 -5.21341 
820 1 -2.90072 2.27756 -5.36766 
494 1 -1.49406 2.94324 -5.86598 
593 1 -0.99139 2.94365 -5.09169 
310 1 -1.46148 2.57456 -4.43187 
1884 2 -0.101701 1.96529 -5.28574 
1945 2 -0.65718 2.13571 5.88483 
1506 2 0.707498 2.26008 -5.20991 
1769 2 1.45522 2.43005 -4.91483 
1130 2 1.56561 2.88489 -5.52431 
380 1 2.40289 1.74234 -5.05399 
895 1 3.05169 2.19505 -5.34999 
1979 2 2.26148 3.32688 5.81272 
2020 2 1.95879 2.34525 -4.19791 
796 1 3.53416 2.60783 5.93246 
574 1 3.73314 2.43407 -4.80569 
869 1 4.3862 2.69961 -5.36717 
396 1 5.15035 2.78607 -4.80568 
762 1 5.08033 3.18724 -5.80722 
923 1 -4.99304 3.67084 -5.02535 
1349 2 -5.92695 4.20418 -4.66003 
45 1 -4.321 4.13176 -5.30584 
446 1 -3.86782 3.89005 -4.42574 
92 1 -3.5078 4.39484 -5.26137 
1175 2 -2.3872 3.53822 -4.79682 
632 1 -2.36415 4.69586 -4.90146 
1692 2 -2.72691 3.66307 -5.93056 
1625 2 -1.83153 3.77209 -5.40105 
1869 2 -1.1038 4.05128 -5.1434 
1096 2 -1.81818 4.10347 5.77464 
56 1 0.260203 3.44524 -5.40404 
815 1 -0.525595 3.31343 -5.87296 
1596 2 -0.986083 4.3679 -5.87418 
709 1 1.4282 3.73518 -4.92219 
716 1 0.897549 3.90096 -5.72899 
884 1 1.86717 4.15192 -5.48327 
1628 2 2.39623 3.00639 -4.89946 
256 1 2.15447 3.89716 -4.71277 
501 1 2.73873 4.36054 -4.97607 
1618 2 3.87299 3.79215 -4.92217 
1779 2 4.70695 3.8954 -5.21385 
1342 2 3.09918 3.48301 -5.41224 
775 1 3.11379 4.33478 -4.05512 
178 1 5.89377 3.40008 -5.30734 
1562 2 5.05818 3.79452 -4.41016 
1207 2 5.32767 4.42099 -5.47348 
14 1 -4.79979 -5.78504 -5.41774 
1417 2 -5.59493 4.7176 -5.45916 
1670 2 -4.57884 5.02698 -4.97786 
1510 2 -3.65532 5.39715 -5.06712 
1127 2 -4.02483 5.54441 5.84175 
687 1 -2.81463 4.61984 -5.68086 
1365 2 -3.07566 5.77095 -5.44712 
1526 2 -1.95012 5.71601 -4.37242 
871 1 -1.28577 5.42501 -5.74933 
221 1 -1.26366 5.11158 -4.97626 
528 1 -0.585601 5.88642 5.52529 
751 1 -2.09136 5.10287 -5.749 
495 1 0.238501 -5.53245 5.1149 
1378 2 -0.137015 4.72626 -5.91338 
1145 2 1.52427 5.36774 5.88507 
1093 2 0.719791 5.04073 -5.80987 
1354 2 1.42379 4.96114 -5.06827 
1955 2 2.11417 5.45577 -5.37079 
1691 2 2.69602 5.63799 -4.7289 
777 1 2.55274 4.49179 -5.80484 
407 1 3.47683 4.73856 -4.82317 
18 1 3.53246 4.9935 -5.76317 
1764 2 3.83705 5.63612 -4.41028 
435 1 -5.66409 5.71863 -5.21727 
473 1 4.40763 5.14211 -5.17234 
172 1 5.17103 5.64093 -5.88602 
1773 2 -5.70047 -5.23093 -4.3647 
1418 2 -4.86044 -5.02923 -4.16143 
1663 2 -4.05931 -4.69499 -4.0703 
255 1 -3.22625 -5.50396 -4.16524 
508 1 -2.75464 -5.10026 -4.7442 
274 1 -2.31857 -5.22917 -3.98884 
1008 1 -2.56701 -5.68961 -3.30696 
5 1 -1.56854 -4.72881 -4.65259 
1571 2 -0.461071 -5.56815 -4.1283 
1035 2 -0.748783 -5.36762 -4.8455 
1291 2 0.246029 -5.12624 -4.57884 
1029 2 0.0264796 -5.6432 -3.50485 
673 1 1.78382 -5.84696 -4.1232 
1334 2 0.963845 -4.84656 -4.47223 
350 1 0.237746 5.70362 -4.92281 
1928 2 0.634432 -5.19649 -3.69509 
1984 2 1.49965 -4.72143 -3.84263 
955 1 2.47462 -5.3493 -4.4169 
959 1 2.71851 -5.67819 -3.67005 
180 1 4.06535 -4.81442 -4.7092 
339 1 4.41354 -4.94737 -3.82331 
847 1 3.55696 -5.367 -3.78518 
1358 2 5.20413 -5.47103 -4.42646 
1559 2 4.5791 -5.83256 -4.14405 
809 1 5.47894 -4.6672 -3.40686 
1272 2 5.735 -5.63133 -3.78086 
251 1 -5.0932 -3.6674 -4.63784 
991 1 -4.77263 -3.72838 -3.95489 
878 1 -5.60453 -4.40862 -3.46199 
273 1 -4.04187 -3.43284 -4.25685 
504 1 -3.98278 -3.76602 -3.50392 
524 1 -3.14416 -3.06088 -4.19779 
1602 2 -1.97955 -3.85942 -4.17995 
1548 2 -3.18969 -4.38906 -3.92368 
1197 2 -2.36683 -4.20405 -3.50748 
1370 2 -1.16502 -3.48002 -4.53638 
1231 2 -0.996804 -3.60918 -3.7249 
416 1 -0.0930579 -4.01156 -4.78815 
902 1 -0.665216 -4.5397 -4.11825 
782 1 0.00375748 -4.24766 -3.82485 
819 1 0.906909 -3.82224 -4.0977 
20 1 1.61026 -3.63699 -3.64028 
1082 2 2.4176 -4.33202 -3.75883 
1528 2 2.89705 -4.12669 -4.48882 
1001 1 2.27575 -3.46713 -3.38435 
1319 2 1.90596 -4.43414 -4.59355 
550 1 3.25915 -3.38277 -2.98919 
1592 2 3.95295 -3.98291 -4.19535 
1232 2 4.05091 -4.05722 -3.28639 
1129 2 4.79468 -3.66375 -3.76918 
373 1 -5.73747 -4.04152 -4.30664 
1836 2 5.54501 -3.38064 -3.44039 
1902 2 -5.91022 -2.95709 -4.09786 
280 1 5.32553 -4.42792 -4.20638 
1657 2 -5.1675 -2.56399 -4.31473 
1871 2 -4.5046 -2.6096 -3.85201 
140 1 5.46911 -2.08896 -4.03059 
1664 2 -4.54984 -2.06632 -4.96049 
1588 2 -4.0307 -2.07807 -4.17425 
1924 2 -3.6134 -2.32611 -3.42828 
196 1 -2.4288 -2.61543 -4.50699 
313 1 -2.29209 -2.98596 -3.60518 
35 1 -1.5125 -2.47508 -4.2569 
657 1 -0.744232 -2.22906 -3.9378 
599 1 -1.53871 -2.72326 -3.43346 
1581 2 -0.126513 -2.94913 -4.40905 
1991 2 -0.287228 -3.35436 -3.40713 
421 1 0.121847 -2.04863 -3.29139 
597 1 -0.592402 -2.5936 -3.06415 
1263 2 0.750729 -2.8813 -3.8175 
1533 2 1.68392 -2.17805 -4.24352 
1457 2 0.592729 -3.20732 -2.90037 
1580 2 1.39209 -2.65121 -3.35405 
639 1 3.92572 -2.92393 -3.68093 
1738 2 2.22954 -2.38145 -3.51151 
403 1 3.87329 -2.55043 -4.55617 
277 1 4.61489 -2.54389 -3.58465 
914 1 4.12789 -3.07648 -2.92999 
999 1 4.81479 -2.35512 -4.43419 
602 1 5.27996 -2.43573 -3.07423 
968 1 -5.10927 -1.73075 -3.51922 
784 1 -5.63388 -1.66907 -4.25093 
205 1 -4.88061 -0.976852 -4.87072 
1110 2 -5.38593 -0.316088 -4.33272 
66 1 -4.59187 -1.22147 -4.08328 
717 1 -3.54281 -0.908643 -3.9797 
1478 2 -1.90514 -2.07425 -2.79109 
1243 2 -3.16775 -1.80971 -4.22616 
1573 2 -2.21455 -1.75357 -3.59027 
1537 2 -1.15181 -1.59716 -3.35346 
1006 1 -0.0524786 -1.82199 -4.12582 
1870 2 -0.885136 -0.96029 -4.33774 
1456 2 -0.405591 -1.06784 -3.64911 
674 1 0.996229 -1.3016 -4.38154 
427 1 0.789786 -1.7962 -3.66996 
640 1 1.60056 -1.32824 -3.65812 
1083 2 3.44522 -1.68096 -4.23262 
116 1 2.53141 -1.13571 -3.34833 
758 1 2.22883 -0.939691 -4.12973 
1259 2 3.9258 -1.81589 -3.5094 
1030 2 2.89105 -1.95059 -3.76628 
1698 2 3.41035 -2.2101 -2.94491 
1350 2 4.87737 -1.19332 -3.83901 
562 1 5.41115 -1.8567 -4.86045 
2048 2 5.70694 -0.811178 -4.04558 
2001 2 -4.51159 0.102951 -4.72281 
1634 2 -5.64409 -0.80531 -3.39759 
32 1 5.9503 0.429219 -3.76753 
109 1 5.66531 0.655329 -4.56113 
1111 2 -4.24872 0.0245079 -4.02604 
1754 2 -4.88532 -0.330684 -3.5174 
1876 2 -3.74971 -0.157769 -3.46364 
1184 2 -2.98421 0.321374 -3.80275 
214 1 -1.81071 -0.338405 -4.11771 
1643 2 -2.26338 0.391196 -3.20683 
749 1 -1.17561 0.16233 -4.43333 
615 1 -0.984424 -0.207392 -3.46923 
234 1 -1.78412 -0.492573 -3.34797 
408 1 -0.398744 0.250759 -4.08423 
1644 2 0.166654 -0.578177 -4.10341 
1832 2 0.604253 -0.683226 -3.35598 
1223 2 1.02644 -0.194095 -4.17316 
1673 2 1.33834 -0.42424 -3.23737 
90 1 0.38991 0.58288 -3.97175 
42 1 3.25212 -0.671431 -4.15124 
1777 2 2.43522 0.334948 -4.43578 
1502 2 1.87664 -0.0490589 -3.95061 
1696 2 2.8287 0.274647 -3.66093 
715 1 3.4493 -0.300136 -4.93047 
1953 2 3.71487 0.577185 -3.74897 
872 1 5.08435 0.15091 -4.31926 
297 1 5.14018 -0.0372123 -3.4614 
334 1 4.24292 -0.41296 -3.39761 
1810 2 5.86834 1.8615 -4.92071 
1728 2 -5.5664 1.7271 -4.04041 
900 1 -5.23713 0.572881 -3.16564 
278 1 -4.92803 0.861782 -3.97395 
338 1 -3.26337 1.39863 -3.6087 
230 1 -4.16053 0.730574 -3.30078 
1736 2 -2.64743 0.81512 -4.41818 
689 1 -3.17747 1.81135 -4.52285 
903 1 -2.33512 1.76919 -3.79701 
1550 2 -1.81385 0.804639 -4.01169 
1050 2 -1.03001 1.27417 -4.37999 
1436 2 -1.38671 0.664037 -3.22705 
1149 2 -0.69552 1.01127 -3.70474 
686 1 -1.54545 1.89794 -3.75621 
1364 2 -0.318242 1.58883 -4.42924 
1683 2 0.0129686 1.50609 -3.57287 
80 1 0.634255 0.928271 -4.74812 
50 1 1.30895 0.94058 -3.80947 
1653 2 0.573957 1.97033 -4.24715 
1187 2 0.951078 1.60124 -3.18375 
760 1 2.16754 1.35745 -4.21751 
1172 2 3.77898 1.06005 -4.46702 
731 1 2.8514 1.44135 -3.75194 
1861 2 4.52804 1.11109 -3.93266 
1132 2 5.34614 1.63095 -4.23032 
188 1 -5.19272 2.91629 -3.62795 
7 1 5.94836 2.47391 -3.24896 
1512 2 -4.51639 2.08478 -3.9111 
1482 2 -3.51126 2.93474 -4.45871 
1415 2 -2.55647 3.0337 -3.97615 
1938 2 -3.72959 2.46835 -3.76338 
1485 2 -1.76305 3.31178 -3.72717 
1794 2 -1.97457 2.85437 -3.14659 
1015 1 -2.30343 2.15571 -4.47917 
1476 2 -2.86453 2.59716 -3.38034 
208 1 -0.772459 2.38862 -3.94984 
561 1 -0.214177 2.79751 -4.56991 
843 1 0.309112 2.87048 -3.87406 
1999 2 1.2624 2.16741 -3.89297 
240 1 0.578181 2.68177 -2.93584 
1011 1 3.18424 1.86717 -4.50017 
2039 2 2.69187 2.73432 -4.01331 
1214 2 2.02321 2.05802 -3.36131 
894 1 3.9129 1.99548 -4.03086 
1274 2 3.24539 3.30632 -4.49596 
1105 2 3.55347 2.89193 -3.56477 
726 1 4.52398 2.3938 -4.45018 
204 1 5.71376 2.86496 -3.95199 
631 1 4.96862 2.40411 -3.65356 
1088 2 -5.17517 4.64852 -4.55892 
1278 2 -4.71719 4.34381 -3.88285 
1073 2 -5.61953 4.11031 -3.84524 
1636 2 -5.66543 3.73304 -3.08589 
676 1 -4.60054 3.3479 -4.24634 
369 1 -3.26875 3.89918 -3.74482 
755 1 -3.00453 4.23283 -4.53039 
250 1 -2.29952 4.04857 -3.79249 
577 1 -1.71111 4.56952 -4.17853 
1268 2 -1.49092 3.66808 -4.48721 
1926 2 -0.549263 3.84757 -4.47165 
1824 2 -0.241566 4.32099 -5.0007 
1480 2 0.631545 4.59496 -5.07363 
1336 2 0.583573 4.33286 -4.25162 
1161 2 0.027563 3.8213 -3.85661 
1372 2 0.87856 3.99129 -3.30642 
885 1 0.722275 3.27342 -4.63065 
478 1 1.3959 2.96806 -3.33809 
76 1 1.49275 3.43267 -4.04893 
653 1 2.58454 3.66989 -3.80719 
1522 2 4.22965 3.35029 -4.14481 
835 1 3.8507 4.22711 -3.57755 
262 1 4.14663 4.68388 -4.17897 
1439 2 5.48886 3.64049 -3.58968 
166 1 4.85303 4.65448 -3.43547 
412 1 -4.78427 -5.8588 -4.65889 
662 1 -4.82708 5.6989 -3.71518 
825 1 -5.5964 5.65446 -4.37559 
342 1 -4.07736 -5.85509 -3.93028 
1191 2 -3.47469 5.05247 -4.00544 
1048 2 -4.23412 4.98076 -4.26684 
1551 2 -1.93377 5.40656 -3.61101 
1038 2 -2.81154 5.47745 -4.49599 
1353 2 -2.68475 5.10124 -3.50494 
1329 2 -1.12226 5.8451 -4.06563 
340 1 -0.826453 4.6948 -3.94938 
638 1 -0.494611 5.1848 -4.58262 
428 1 0.239106 5.26826 -3.99676 
87 1 -0.391299 5.53035 -5.40041 
836 1 -0.194701 4.87096 -3.41906 
2040 2 1.37427 4.69142 -4.14579 
237 1 0.999052 5.69736 -4.29488 
1593 2 2.11046 5.09882 -4.54496 
1033 2 2.17692 4.77611 -3.69504 
1499 2 2.96014 5.34175 -3.86425 
1612 2 4.0898 5.39684 -3.45216 
699 1 5.31696 5.43675 -5.03415 
370 1 5.73078 5.18173 -3.79271 
1425 2 4.93336 5.7947 -3.39694 
946 1 5.05757 4.89622 -4.32144 
1534 2 -5.25631 -5.3958 -3.26786 
798 1 -5.30958 -4.53598 -2.56823 
1362 2 -5.37662 -5.86996 -2.47326 
2016 2 -4.47223 -5.15259 -3.24522 
1122 2 -4.55455 -5.54251 -2.43223 
1261 2 -3.52984 -4.89045 -3.31184 
1394 2 -3.67577 -5.11449 -2.47469 
1783 2 -2.70943 -4.84576 -2.90668 
295 1 -1.63586 -5.34096 -2.99815 
954 1 -1.6548 -5.67378 -1.98006 
326 1 -1.45017 -5.00191 -3.84806 
260 1 -0.971852 -5.29715 -2.5594 
1338 2 0.763606 -5.72306 -2.8553 
459 1 -0.146473 -5.07517 -2.16228 
467 1 -0.707021 -4.90758 -3.25342 
147 1 0.122309 -4.55917 -3.01419 
1081 2 1.29712 -5.81101 -2.20055 
1199 2 1.48002 -5.18093 -3.28084 
2019 2 3.13316 -4.59892 -2.70128 
1563 2 2.26004 -4.89435 -3.26026 
487 1 3.13676 -5.62265 -2.77015 
1828 2 1.99916 -5.23768 -2.32324 
667 1 3.8505 -5.54566 -3.00014 
586 1 4.09919 -5.75538 -2.13827 
1013 1 3.29577 5.86426 -1.92683 
153 1 4.74382 -5.11342 -3.00956 
284 1 5.68817 -5.00878 -2.57501 
542 1 4.95729 -5.41167 -2.16807 
483 1 -4.73705 -4.13016 -3.17827 
1240 2 -5.64288 -3.6625 -1.9701 
666 1 -4.34482 -4.20891 -2.48978 
246 1 -3.52025 -3.89006 -2.67195 
844 1 -2.79954 -3.57665 -2.47736 
753 1 -3.1409 -3.39212 -3.40461 
1079 2 -1.60017 -4.02386 -3.24713 
1807 2 -2.01252 -4.49401 -2.47938 
1402 2 -1.19284 -4.27008 -2.02798 
1477 2 -0.111158 -3.68012 -2.5429 
1452 2 -0.814209 -4.03078 -2.70644 
1613 2 0.615605 -3.68031 -1.92329 
938 1 0.877609 -4.20587 -3.28894 
249 1 1.35651 -4.28446 -2.61872 
661 1 2.11991 -3.85245 -2.75598 
385 1 3.00846 -3.70995 -2.16424 
1765 2 3.89693 -4.59328 -2.53213 
321 1 3.83701 -3.465 -2.1496 
1198 2 3.32798 -4.35483 -3.54982 
137 1 4.40309 -3.65052 -1.44284 
1844 2 4.85762 -3.98493 -2.93337 
1655 2 -5.75231 -3.57277 -2.7762 
1521 2 5.42894 -3.9616 -2.28657 
2010 2 -5.30944 -2.99221 -3.39657 
1817 2 -4.97711 -3.32076 -2.55172 
471 1 -4.63991 -1.92021 -2.83999 
1545 2 -4.23358 -2.85256 -2.99198 
1442 2 -4.26586 -3.13834 -2.19646 
1867 2 -2.62099 -2.2953 -2.46358 
1908 2 -2.9221 -2.22313 -3.38146 
677 1 -2.14581 -3.28628 -2.78477 
1911 2 -3.28996 -2.59479 -2.63736 
388 1 -1.25057 -3.05271 -2.59109 
11 1 -0.0694127 -2.67856 -2.20182 
287 1 0.708809 -2.23212 -2.38658 
1896 2 1.26127 -3.29029 -2.29915 
566 1 1.07388 -2.4401 -1.58898 
1923 2 1.95128 -2.79696 -2.38156 
377 1 1.6267 -1.96702 -2.16876 
1326 2 2.5158 -2.4876 -2.7268 
1947 2 2.65181 -2.92753 -1.72031 
1973 2 3.35343 -2.47577 -2.02618 
754 1 4.85516 -2.93005 -2.59399 
296 1 5.6705 -2.68753 -2.42579 
213 1 -5.73108 -2.1678 -2.99838 
311 1 5.08294 -3.25029 -1.72279 
1826 2 -5.11417 -0.915032 -2.60879 
1299 2 -5.93698 -1.266 -2.58061 
1641 2 5.54204 -1.37583 -3.24428 
592 1 -4.12379 -1.41147 -3.30925 
636 1 -3.80837 -1.69172 -2.62598 
767 1 -2.99482 -1.12204 -3.05627 
1792 2 -4.38124 -0.975291 -2.03425 
419 1 -2.06824 -0.931988 -2.48636 
848 1 -2.91147 -1.30846 -2.16317 
704 1 -2.54043 -0.707938 -3.65315 
1296 2 -0.758943 -1.7317 -2.63367 
1682 2 -1.44311 -2.2356 -2.13751 
1086 2 -0.740469 -2.0027 -1.77256 
1635 2 -0.0710957 -1.12108 -2.87901 
1517 2 0.697508 -0.965639 -2.47939 
998 1 1.14745 -1.63743 -2.91836 
705 1 1.9965 -1.54689 -2.94942 
1916 2 1.17243 -1.30252 -1.64956 
106 1 2.60861 -1.5819 -2.13576 
700 1 3.15616 -1.22652 -2.64719 
125 1 3.52569 -0.83016 -3.33198 
299 1 4.28683 -0.220844 -4.2625 
846 1 3.70668 -1.10024 -2.06656 
1787 2 5.18099 -1.71875 -2.22976 
1946 2 4.12318 -1.83732 -2.50703 
1167 2 4.7307 -1.48982 -3.09896 
818 1 -5.78858 0.147115 -2.61539 
692 1 -5.15161 0.0889874 -1.99245 
518 1 5.82992 -0.451331 -1.91952 
2035 2 -4.3496 -0.546744 -2.91699 
824 1 -4.57694 0.35931 -2.53061 
1589 2 -2.62447 -0.168403 -2.04895 
1206 2 -2.89847 -0.0943937 -2.92389 
1972 2 -3.55568 -0.499163 -2.31117 
1834 2 -1.93619 0.150931 -2.33968 
898 1 -1.33622 -1.15893 -1.84547 
1761 2 -1.49741 0.185104 -1.62972 
499 1 -1.17051 -0.715117 -2.66877 
625 1 -0.373309 -0.648108 -1.68825 
776 1 0.0468256 0.143754 -3.17789 
447 1 -0.35087 -0.214928 -2.63586 
963 1 0.457562 -0.0426758 -2.29246 
1568 2 1.64179 -0.636927 -2.39755 
874 1 0.983571 0.440507 -3.11837 
886 1 1.24519 0.212505 -2.06669 
1314 2 2.22487 -0.15034 -3.16778 
1680 2 2.5712 -0.341257 -2.26636 
2008 2 3.04225 0.0120473 -2.82586 
1320 2 3.9057 0.275701 -2.73484 
654 1 5.1428 -0.496257 -2.75536 
241 1 4.32877 -0.653358 -2.44369 
1858 2 4.68485 0.186014 -2.09532 
1986 2 -5.78324 1.32964 -2.50884 
1720 2 -5.39386 1.61698 -3.23599 
1724 2 -4.97069 1.27649 -2.23903 
1282 2 -4.5561 1.72554 -2.97962 
613 1 -3.52068 0.719973 -2.73851 
1520 2 -3.9074 1.60854 -2.15858 
164 1 -2.66097 1.27773 -2.973 
259 1 -2.7322 0.88213 -2.22341 
397 1 -2.03369 1.17409 -2.13615 
489 1 -1.78174 1.50651 -2.85722 
1104 2 -1.06366 0.365394 -2.43042 
189 1 -1.20527 1.47217 -2.16535 
1310 2 -0.526301 1.1081 -2.89886 
2022 2 -0.439891 0.584241 -1.99152 
1893 2 0.32303 1.21708 -2.70024 
171 1 1.69063 0.695663 -2.56703 
1386 2 1.05307 1.4872 -2.30167 
1297 2 0.385503 0.98457 -1.9021 
464 1 2.28518 0.485199 -1.85669 
232 1 2.21894 1.04966 -3.24476 
110 1 2.83151 0.933711 -2.50568 
944 1 3.50254 1.56842 -3.24591 
194 1 3.77181 1.46825 -2.46455 
1877 2 5.54987 1.1939 -3.2505 
1654 2 4.54774 0.760103 -3.00243 
702 1 4.76087 1.68517 -2.28471 
1803 2 5.24 0.729631 -2.36918 
16 1 5.61994 2.13288 -2.11929 
811 1 -5.46887 2.58146 -2.63351 
926 1 -4.61891 2.87896 -2.89088 
516 1 -4.40484 2.60226 -2.00689 
69 1 -4.10585 3.48315 -3.49744 
276 1 -3.72467 3.1255 -2.61918 
1839 2 -3.57095 2.03484 -2.86351 
1959 2 -2.57409 2.42469 -2.61626 
1092 2 -3.05455 1.8385 -2.04714 
1607 2 -0.886069 3.52826 -3.67904 
719 1 -1.07385 2.04456 -3.19898 
1689 2 -1.18288 2.97318 -2.73971 
301 1 -0.326662 2.38728 -3.19842 
134 1 0.298596 2.16259 -2.20948 
585 1 -0.521181 1.98138 -2.35409 
1340 2 1.72787 1.7703 -2.65695 
937 1 1.49396 2.70654 -2.39386 
945 1 0.985506 2.40518 -1.76502 
1461 2 2.55687 1.97604 -2.2503 
1994 2 2.76368 2.43522 -3.10679 
621 1 4.35693 1.75345 -3.12571 
1686 2 3.60441 2.49982 -2.5923 
1825 2 4.26992 2.92906 -2.92014 
1977 2 4.66718 3.39542 -3.48459 
381 1 5.27916 2.17643 -2.91192 
1333 2 5.34812 3.30544 -2.73036 
1026 2 4.94761 2.9066 -2.2608 
1662 2 5.95495 3.24054 -1.95462 
1072 2 -5.21651 3.54892 -2.24593 
1527 2 -4.78958 4.00055 -2.96207 
579 1 -5.73162 4.52667 -2.20692 
1575 2 -3.99994 4.60313 -3.3723 
1413 2 -3.2462 4.6171 -2.88889 
1419 2 -4.07949 4.13507 -2.31076 
989 1 -2.99991 3.58029 -3.01181 
26 1 -2.67373 3.32693 -2.2517 
772 1 -2.04724 3.91608 -2.9064 
17 1 -1.4169 4.47412 -3.29841 
568 1 -1.23756 4.00741 -2.36903 
361 1 -0.504654 4.45222 -2.71912 
1304 2 -0.438311 3.36723 -2.9012 
1616 2 -0.171552 3.21054 -2.02367 
1183 2 0.37969 3.56842 -2.60819 
1668 2 1.42281 3.70987 -2.2801 
1042 2 1.74357 4.25965 -3.14829 
34 1 2.21146 3.29209 -3.09487 
394 1 2.8828 3.19438 -2.33522 
1428 2 2.29909 4.15176 -2.08009 
552 1 3.16997 3.8313 -3.24317 
1405 2 3.06198 4.35245 -2.23064 
181 1 3.69185 3.71516 -2.61203 
432 1 4.44111 4.17945 -2.85542 
355 1 5.09922 4.23914 -2.3295 
918 1 5.63055 4.65529 -2.95631 
443 1 -5.36849 5.07527 -3.39396 
993 1 -5.05996 5.0264 -2.48495 
589 1 -4.25471 5.45416 -2.99877 
119 1 -3.45228 5.91831 -3.24102 
961 1 -4.41472 5.03357 -2.08713 
679 1 -3.57173 5.63654 -2.5012 
1275 2 -3.07532 4.25687 -2.0377 
1335 2 -2.41524 4.85825 -2.66699 
1014 1 -2.51383 -5.85649 -2.3734 
1757 2 -1.59991 5.31028 -2.72589 
1236 2 -0.75743 5.74434 -3.29877 
1543 2 -0.874177 5.39083 -2.4141 
1957 2 -1.55047 4.92348 -1.91079 
1503 2 0.0230179 5.73693 -2.61648 
123 1 0.669329 4.86999 -2.96038 
612 1 1.16808 5.46939 -3.50714 
82 1 1.57556 5.12374 -2.60621 
41 1 2.04046 5.75173 -3.28481 
1854 2 2.52241 4.71201 -2.78457 
422 1 2.42807 5.74811 -2.58075 
1714 2 4.4062 5.20615 -2.61444 
1126 2 3.3624 5.09073 -3.1565 
1090 2 3.72268 4.82852 -2.27143 
1604 2 5.88985 5.87181 -3.03138 
1411 2 5.2136 5.60091 -2.45457 
724 1 -4.83116 -4.61363 -1.90656 
65 1 -5.00628 -4.95886 -1.23794 
802 1 -5.65472 -5.41616 -0.732212 
864 1 -5.67458 -5.08193 -1.85568 
1312 2 -3.79168 -5.49137 -1.71561 
1285 2 -2.90954 -5.08182 -1.8855 
1404 2 -3.18589 -5.42142 -1.24826 
1106 2 -2.43421 -5.2482 -0.912773 
1047 2 -2.23561 -4.66053 -1.73382 
934 1 -0.859722 -5.643 -1.76912 
678 1 0.00755945 -5.42019 -1.46504 
337 1 -0.593793 -5.88175 -0.926517 
1209 2 -1.4899 -4.7352 -1.14377 
107 1 0.640718 -4.76949 -2.44604 
85 1 0.757391 -4.95293 -1.55816 
328 1 1.56199 -4.61057 -1.50512 
1742 2 1.43331 5.84532 -1.28783 
1189 2 2.89981 -5.06386 -1.87781 
1611 2 2.12963 -5.56167 -1.40709 
1749 2 3.35041 -5.31578 -1.04563 
2004 2 3.7708 -4.87145 -1.71941 
2017 2 4.11941 -5.07255 -0.916319 
182 1 4.61702 -5.77384 -1.42714 
452 1 5.49377 -5.49484 -1.56603 
1471 2 4.7498 -4.60128 -1.34039 
1201 2 -4.86655 -3.6673 -1.55724 
1217 2 -5.13512 -4.12056 -0.509419 
1387 2 -5.57242 -4.08737 -1.16192 
21 1 -4.02558 -4.61654 -1.28333 
411 1 -3.4945 -4.21842 -1.73559 
1948 2 -4.50118 -3.7365 -0.727492 
816 1 -2.7236 -3.84681 -1.73492 
441 1 -3.00349 -4.27255 -0.896134 
71 1 -2.3101 -3.85428 -1.01811 
986 1 -1.849 -3.46085 -1.89344 
324 1 -0.773696 -3.15708 -1.78648 
634 1 -1.39994 -3.42266 -1.24382 
1280 2 -0.385034 -4.09187 -1.80261 
1535 2 -0.616586 -4.64205 -1.10312 
1753 2 0.194333 -4.18701 -1.13333 
457 1 -0.233279 -3.23712 -1.03862 
1894 2 1.32469 -3.71891 -1.17727 
1942 2 0.893966 -4.19558 -0.53611 
1019 1 2.22775 -4.26102 -1.99434 
100 1 2.13976 -4.64416 -0.737047 
286 1 2.71689 -4.33062 -1.27639 
1798 2 2.27865 -3.45615 -0.816971 
928 1 4.96837 -3.67735 -0.82199 
522 1 3.43127 -3.91841 -1.41311 
605 1 3.95493 -3.93107 -0.762685 
1530 2 4.72321 -4.40837 -2.17738 
1767 2 5.57035 -4.34482 -1.36263 
167 1 5.55046 -3.26936 -1.07282 
734 1 -5.28506 -2.32671 -2.23508 
58 1 -5.08736 -2.60513 -1.35136 
291 1 -4.50029 -2.26107 -1.94702 
1449 2 -3.91457 -3.35466 -1.31797 
917 1 -4.00807 -2.21946 -1.0785 
2007 2 -3.47319 -2.8863 -1.963 
1052 2 -2.88454 -2.62655 -1.36425 
1400 2 -3.0589 -3.17761 -0.868237 
1781 2 -2.31376 -2.50986 -1.76185 
1289 2 -1.21372 -2.40107 -1.17535 
573 1 0.296084 -2.78914 -1.43334 
1985 2 1.81183 -3.27566 -1.55049 
211 1 1.47272 -2.50372 -0.835331 
347 1 0.732105 -2.88228 -0.681869 
215 1 2.03679 -2.24071 -1.36786 
199 1 2.68168 -1.9639 -0.858956 
1770 2 3.0552 -3.12412 -0.784585 
1066 2 4.13945 -2.35179 -1.90206 
1123 2 3.59825 -2.56988 -1.13106 
1708 2 4.72785 -2.05722 -1.53712 
275 1 -5.79045 -2.7722 -1.54671 
285 1 -5.60291 -3.13642 -0.629975 
1352 2 4.4407 -2.66215 -1.07908 
1492 2 5.31327 -2.20241 -0.949572 
1279 2 5.81496 -1.69792 -1.62672 
1940 2 -5.25939 -1.41831 -1.69807 
1025 2 -4.59297 -1.30571 -1.24565 
1978 2 -5.58012 -1.74939 -0.858042 
1128 2 -3.22836 -0.495716 -1.48827 
948 1 -3.63986 -1.80636 -1.72947 
117 1 -2.9654 -1.59553 -1.29677 
99 1 -2.37486 -1.86207 -0.700301 
37 1 -2.14123 -1.30383 -1.54376 
548 1 -1.63573 -1.47593 -0.900966 
630 1 -0.821073 -1.12855 -1.06628 
1505 2 -0.185406 -1.84212 -1.19111 
1808 2 0.405421 -1.95549 -0.479209 
1819 2 0.100985 -1.43549 -2.0057 
799 1 -0.0866551 -0.840138 -0.691274 
2027 2 2.01541 -0.918626 -1.70347 
2046 2 1.30358 -1.53379 -0.834793 
1057 2 0.578245 -1.54456 -1.28708 
1360 2 2.25383 -1.05319 -0.798245 
691 1 3.11959 -1.56601 -1.50339 
962 1 3.36979 -2.07158 -0.121773 
626 1 3.71743 -1.63419 -0.848931 
867 1 4.10165 -1.17125 -1.36907 
279 1 4.94513 -0.889323 -1.76175 
737 1 5.61604 -0.892132 -1.10847 
958 1 -5.33893 -0.377126 -1.28837 
1305 2 -4.90346 0.567992 -0.643337 
1672 2 -5.92795 0.438946 -0.859456 
876 1 -4.419 -0.0227679 -1.48089 
912 1 -3.89251 0.517992 -1.95044 
921 1 -3.72852 0.039398 -0.772375 
94 1 -3.27461 0.489345 -1.37347 
1432 2 -2.18175 -0.253462 -1.39108 
2043 2 -1.38771 -0.20532 -0.792624 
1067 2 -1.29015 -0.3555 -0.00596238 
1735 2 -0.888265 0.349631 -1.31514 
1213 2 -0.530679 0.136969 -0.454054 
160 1 0.528439 -0.383846 -1.30097 
1860 2 -0.00826116 0.400692 -1.2394 
121 1 1.33504 -0.218141 -1.17927 
601 1 0.854567 -0.604702 -0.493135 
1897 2 2.96872 -0.480294 -1.3776 
243 1 1.9801 0.150912 -1.24474 
1017 1 2.78173 0.471264 -1.08713 
1952 2 3.4105 -0.102739 -1.98339 
1220 2 4.2238 -0.173854 -1.30373 
1529 2 3.57926 -0.534601 -0.708896 
1508 2 5.40035 0.380527 -1.63624 
1468 2 5.13925 0.179853 -0.8576 
1059 2 -5.63726 0.878545 -1.73615 
298 1 -5.86419 1.73733 -1.29122 
1003 1 -5.44456 1.59501 -0.667567 
2038 2 -4.99823 1.04147 -1.3889 
1170 2 -4.17827 1.38351 -1.45824 
357 1 -2.36851 0.786638 -1.24499 
1162 2 -3.30436 1.58623 -1.25019 
1080 2 -2.41041 1.75732 -0.855176 
919 1 -1.60014 1.16634 -1.37656 
115 1 -0.692612 1.52538 -1.42608 
660 1 -0.28199 1.40466 -0.680829 
1944 2 0.686195 0.634759 -0.805213 
1838 2 1.20245 1.12422 -1.52261 
823 1 0.333803 1.43276 -0.213601 
1642 2 1.89254 1.5364 -1.77678 
1967 2 2.75211 1.72879 -1.26999 
1158 2 1.89248 1.12839 -0.854801 
104 1 3.2359 0.820642 -1.68829 
920 1 4.14901 1.09455 -1.7526 
351 1 5.21665 1.49686 -1.54291 
95 1 5.4096 1.38708 -0.566612 
761 1 -5.09041 2.22003 -1.78772 
1330 2 -5.41299 3.1442 -1.24787 
323 1 -3.43561 2.94523 -1.7774 
322 1 -3.67357 2.42296 -1.19659 
460 1 -2.91333 2.71417 -0.679935 
520 1 -2.58723 3.05536 -1.40794 
111 1 -2.02674 3.18214 -0.806428 
2021 2 -2.38523 2.12189 -1.71468 
1247 2 -1.70568 2.49287 -2.18852 
86 1 -1.40986 3.57492 -1.40693 
2047 2 -1.54494 2.21943 -1.17651 
1756 2 -1.04687 2.71541 -1.81218 
910 1 0.116574 1.83433 -1.4059 
1679 2 -0.51225 2.59918 -1.03116 
1981 2 0.118661 3.03909 -1.35804 
747 1 1.06524 1.87386 -0.888859 
143 1 1.70801 2.54925 -1.24352 
896 1 2.21567 2.8831 -1.81061 
448 1 2.9549 2.97053 -1.35788 
1368 2 3.31689 2.22988 -1.87118 
1866 2 3.98755 2.07893 -1.33874 
906 1 3.52239 3.32068 -1.74944 
1786 2 4.31298 2.57446 -2.12339 
510 1 4.24199 3.45302 -1.23239 
1811 2 4.75415 2.5139 -1.38573 
1554 2 5.64554 2.82948 -1.19507 
506 1 -5.4058 4.10803 -1.05419 
1287 2 -4.58951 3.62372 -1.81185 
952 1 -4.9559 4.59209 -1.54564 
641 1 -4.21608 4.69897 -1.08494 
1669 2 -4.51001 3.24271 -0.943185 
1685 2 -4.83032 2.80836 -0.250237 
1971 2 -3.68544 3.76279 -1.34053 
1601 2 -2.23204 4.55185 -1.68625 
733 1 -1.92249 3.56348 -2.05729 
1348 2 -2.30895 4.04178 -0.393475 
1992 2 -2.74118 4.13857 -1.10633 
165 1 -0.6778 4.0874 -1.72233 
564 1 0.0669109 4.34375 -2.16389 
905 1 0.302163 4.28451 -1.36576 
418 1 -0.408214 3.93066 -1.09841 
1071 2 0.815265 3.3905 -1.57461 
1107 2 1.22037 3.33546 -0.889508 
1997 2 1.7457 3.75737 -1.43156 
1868 2 2.63274 3.91376 -1.16473 
1267 2 3.28613 4.34711 -1.40823 
650 1 4.4889 3.78476 -1.99412 
1234 2 4.017 4.59873 -1.53269 
582 1 5.11168 3.77722 -1.31947 
258 1 5.72662 4.16604 -1.60517 