ITEM: TIMESTEP
30900
ITEM: NUMBER OF ATOMS
2048
ITEM: BOX BOUNDS pp pp pp
-5.9457113047121508e+00 5.9457113047121508e+00
-5.9457113047121508e+00 5.9457113047121508e+00
-5.9457113047121508e+00 5.9457113047121508e+00
ITEM: ATOMS id type x y z 
1714 2 5.57229 -5.35094 -5.02461 
14 1 -4.83088 -5.85516 -4.64254 
346 1 -4.00023 -5.58906 -4.67408 
333 1 -5.05694 -5.82072 -5.40524 
508 1 -4.01318 -5.21591 -5.62426 
467 1 -2.61955 -5.01719 -4.56957 
91 1 -3.00054 -4.90049 -5.64692 
1151 2 -2.59961 -5.38044 5.47182 
1551 2 -1.20698 -5.5625 -5.22877 
1029 2 -1.81851 -5.61229 -5.74852 
1199 2 -1.05509 -4.99437 5.91398 
902 1 -2.23667 -4.71233 -5.39115 
1571 2 -0.350887 -5.08855 -5.2462 
350 1 0.186428 5.90777 -5.30745 
1338 2 0.441319 -5.0048 -4.62045 
428 1 1.25118 -5.62861 -5.42238 
1013 1 0.956523 -5.89449 -4.67948 
442 1 1.90651 -5.15296 -5.66278 
496 1 2.52837 -5.05929 -5.10099 
575 1 2.71969 -5.4852 -4.20835 
1704 2 3.08583 -5.91765 -5.55818 
1847 2 4.05568 5.81712 -4.54857 
1901 2 3.91227 -5.91655 -5.36179 
707 1 3.47063 -4.91019 -5.1344 
1799 2 4.91594 -5.18381 5.7202 
1239 2 4.63756 -5.56498 -5.40579 
1390 2 -5.34378 -4.71383 -5.81821 
1249 2 -4.53449 -4.4829 -5.11751 
809 1 -4.99401 -3.51668 -4.99545 
684 1 -5.61478 -3.71053 -5.57297 
1472 2 -3.21177 -3.67079 -5.94081 
1630 2 -2.75844 -3.17116 5.54081 
1617 2 -2.70841 -3.7451 -5.26309 
1711 2 -1.44621 -3.44394 -4.84148 
530 1 -1.22588 -4.22207 -5.41626 
1 1 -0.482032 -4.08899 -4.92381 
413 1 -0.245098 -3.72524 -5.80453 
1542 2 1.06926 -4.5565 -5.09636 
782 1 0.675633 -3.38425 -5.68488 
1236 2 1.61393 -4.17648 -5.44612 
1082 2 2.75982 -3.50244 5.77495 
1260 2 2.50839 -3.87394 -5.3329 
2019 2 4.03624 -3.88146 -4.17248 
1528 2 3.3838 -3.70168 -5.35412 
223 1 3.84277 -4.49645 -5.86586 
481 1 4.59983 -4.18028 -5.67529 
280 1 5.37504 -3.84181 -5.6737 
1705 2 -5.84639 -2.57462 -5.56999 
1745 2 -5.07056 -2.26963 -5.57619 
353 1 -3.92494 -2.90677 -5.59952 
196 1 -3.48182 -2.92653 -4.67924 
402 1 -2.58841 -2.689 -4.86595 
218 1 -3.09646 -2.53768 -5.54652 
664 1 -2.36956 -2.12822 -5.91768 
1515 2 -0.616747 -2.89035 -5.17548 
1820 2 -0.0836095 -2.37967 -5.8086 
595 1 -1.67738 -2.45989 -4.58736 
1250 2 0.749664 -2.22827 -5.53304 
1555 2 0.180645 -2.6136 -4.92209 
1533 2 1.03101 -2.42444 -4.6336 
122 1 1.70202 -2.94807 -5.53686 
1698 2 1.57831 -1.94821 -5.08738 
547 1 1.26704 -3.43921 -4.88126 
904 1 3.1512 -2.75064 -4.90836 
779 1 2.60505 -2.45474 -5.70934 
308 1 2.84943 -2.13978 5.5261 
706 1 3.59275 -2.2697 -5.76135 
1887 2 4.14538 -3.48602 -4.89864 
1929 2 5.13742 -2.8251 -5.61297 
475 1 4.13964 -2.33638 -4.94186 
609 1 -5.35925 -0.901481 -5.75944 
562 1 -5.47301 -1.43002 -5.11627 
771 1 -4.60395 -1.11216 -4.74862 
1475 2 -4.23193 -1.76368 -5.88208 
2032 2 -3.82112 -1.95309 -4.48939 
117 1 -3.74044 -0.745887 -4.80082 
1588 2 -4.38966 -2.05237 -5.01509 
1975 2 -3.39415 -1.59386 -5.33007 
1243 2 -2.00623 -0.891857 -5.14038 
1414 2 -0.86681 -0.772146 -4.80714 
967 1 -1.61382 -1.94608 -5.35817 
922 1 -1.36479 -1.57265 5.78582 
35 1 -0.984763 -1.97074 -4.68643 
367 1 0.042832 -1.44973 -5.14942 
8 1 -0.708388 -1.68803 -5.52311 
788 1 0.0801738 -1.06681 5.91957 
1326 2 1.31144 -1.90695 5.77017 
1401 2 2.27357 -1.64639 -5.17449 
1087 2 3.63299 -0.796278 5.60981 
1202 2 2.80129 -1.12648 5.60157 
1332 2 3.97873 -0.2156 4.93289 
277 1 4.4636 -1.92424 -5.63158 
1982 2 4.26185 -0.638757 -5.62214 
1190 2 3.8182 -1.08741 -5.00945 
999 1 5.63018 -1.31973 -5.83171 
33 1 5.23942 -1.82549 -5.23563 
1725 2 -5.90932 -0.270284 -5.22873 
1110 2 -4.9574 -0.0418353 -4.89687 
2014 2 5.4258 -0.42397 -4.66722 
701 1 -4.49109 -0.785283 -5.45292 
1111 2 -4.32814 0.366262 -5.25515 
55 1 -4.10925 -0.345921 5.79983 
833 1 -3.45302 -0.351617 -5.41752 
505 1 -2.27683 -0.0746898 -4.47989 
1343 2 -3.44959 0.590379 -5.02223 
212 1 -2.68502 -0.0386785 -5.4181 
374 1 -1.90105 0.309513 -5.36983 
1355 2 -1.0843 -0.495214 -5.56865 
451 1 -0.203688 0.618664 -4.67334 
244 1 -0.812003 0.705418 -5.14497 
1809 2 0.0526193 -0.177952 -5.34942 
1631 2 0.494234 0.290872 5.83979 
768 1 0.903646 -1.02844 5.88904 
1785 2 1.17558 0.286045 -5.4796 
916 1 1.73453 -0.603345 -5.67643 
758 1 2.95283 -0.0443802 -5.39056 
105 1 3.86593 0.202927 -5.2666 
334 1 2.41091 -0.514146 -4.83865 
1083 2 4.63116 -0.995318 -4.48572 
872 1 3.27739 -0.242723 -4.57623 
1257 2 5.02483 -0.749648 -5.26215 
715 1 5.3201 0.482583 -4.48268 
469 1 -5.72334 1.18735 -5.81766 
109 1 -4.18737 1.81239 -5.5242 
190 1 -3.38972 2.26421 -5.88858 
1736 2 -3.72101 0.933305 -5.84744 
689 1 -3.78335 1.57002 -4.82968 
1256 2 -2.179 1.21231 -5.06574 
1498 2 -2.8118 1.08176 -5.54548 
2001 2 -1.4437 1.37947 -4.55286 
1298 2 0.443261 2.17597 -4.89699 
827 1 0.154062 1.07442 -5.53322 
1884 2 0.27613 1.68296 -4.19358 
482 1 -0.560412 0.931614 5.77441 
63 1 0.573537 1.49485 5.68386 
534 1 1.32565 1.92495 -5.81763 
1882 2 1.29051 0.606691 5.51975 
380 1 1.77674 1.68152 -5.2435 
1210 2 3.3123 1.19774 -5.16787 
1502 2 2.6549 0.85339 -5.00562 
1314 2 2.84862 1.16192 -5.90859 
1953 2 4.87801 2.00026 -5.80618 
1470 2 4.32664 1.48873 -5.0717 
195 1 4.81586 0.623655 -5.34082 
866 1 5.75751 0.943134 -5.11416 
1204 2 5.10284 1.70391 -4.82748 
1403 2 5.70436 2.01571 -5.21007 
1877 2 -5.42076 2.43812 -5.77182 
676 1 -5.73775 3.16606 -4.77245 
1800 2 -3.96496 3.24132 -5.57396 
1938 2 -3.51358 3.02137 -4.88 
1412 2 -4.46742 2.6939 -5.09973 
546 1 -1.70553 2.70775 -5.19615 
493 1 -2.56614 2.48049 -5.66794 
990 1 -2.55245 2.91118 5.32851 
815 1 -2.51564 2.37491 -4.82655 
619 1 -1.87475 2.9763 5.80593 
950 1 -0.884425 2.92518 -5.30285 
1364 2 0.979976 2.7384 -5.45075 
885 1 0.0975241 3.02042 -4.37592 
1628 2 1.85836 3.12036 -5.26103 
1085 2 2.20193 2.65087 -4.57705 
1967 2 1.84708 2.43943 -3.75126 
1342 2 2.67417 3.33102 -5.22885 
118 1 1.96893 2.30504 5.54329 
570 1 2.5754 2.08421 -5.48816 
574 1 4.01628 2.3417 -4.55479 
188 1 4.52577 2.77066 -5.22833 
96 1 3.48814 2.5057 -5.18253 
7 1 5.43371 2.80155 -4.51455 
926 1 -4.8536 3.90494 -5.46888 
1365 2 -5.03892 4.6914 -4.81832 
1482 2 -3.10098 3.466 -5.25065 
923 1 -3.65516 4.45071 -5.21207 
323 1 -3.05892 4.18852 -4.55267 
69 1 -4.22695 3.97668 -4.93464 
1476 2 -2.27021 3.69434 -4.97556 
1772 2 -2.10714 3.91818 -5.86396 
1378 2 -1.42607 3.79147 -5.04157 
221 1 -2.61135 4.75272 -4.81344 
1934 2 -1.33259 4.27537 -5.98069 
1692 2 -0.553139 4.13162 -5.02425 
1336 2 -0.450898 4.57034 -5.76267 
852 1 -0.0732036 3.37033 -5.18184 
1756 2 0.31432 4.61183 -4.84166 
777 1 2.05887 4.55524 -5.89042 
394 1 1.55801 3.73559 -4.47613 
653 1 2.06969 4.33867 -4.92348 
1002 1 2.95739 4.62116 -5.61238 
1214 2 3.47688 3.46503 -4.7685 
1274 2 4.13654 3.70822 -5.20717 
262 1 2.84355 4.33738 -4.66942 
1562 2 4.24869 3.61452 -4.39764 
1640 2 4.83863 4.16272 -5.59569 
1088 2 -5.97237 4.39632 -5.16065 
1073 2 5.63285 4.53729 -5.90956 
342 1 -5.87067 5.75684 -5.38897 
412 1 -4.87621 5.44373 -3.75282 
166 1 -5.62117 5.54603 -4.4973 
1207 2 -5.37581 4.88211 -5.78926 
1527 2 -4.27606 5.00365 -4.45158 
1989 2 -3.66088 5.4123 -5.07853 
1526 2 -2.80171 5.68599 -4.73386 
1329 2 -1.94725 -5.88677 -4.97676 
146 1 -2.44235 4.96683 -5.63208 
1510 2 -2.04916 5.61407 -3.98931 
989 1 -3.10898 4.62835 -5.88396 
797 1 -1.6594 5.08237 -5.45737 
836 1 -0.858936 5.24531 -4.92261 
751 1 -2.33811 4.24898 -3.8071 
638 1 -0.0808441 5.45246 -4.63926 
340 1 -0.641262 5.63211 -5.60144 
1607 2 1.23424 5.11576 -5.10131 
1193 2 1.73253 5.73481 5.1724 
1145 2 1.89587 5.08204 -4.31483 
1033 2 1.46905 5.43409 -5.94252 
1955 2 2.23181 5.46828 -5.18717 
1093 2 3.0834 5.45902 -4.82363 
437 1 4.39161 5.00267 -5.21616 
473 1 3.83612 5.1147 5.96618 
699 1 5.48466 5.37756 -4.78388 
1227 2 -5.59994 -4.97339 -5.04705 
1203 2 -5.75361 -5.3084 -4.28842 
1612 2 -5.29306 -5.44839 -3.61233 
1411 2 -3.88415 -4.62383 -4.12593 
274 1 -3.29551 -5.463 -4.1573 
5 1 -3.28952 -5.20079 -5.02124 
147 1 -2.42453 -5.45911 -3.66688 
497 1 -1.82219 -4.94667 -3.90273 
107 1 -0.932843 -4.43646 -4.17453 
1353 2 -1.29366 -5.77138 -4.31609 
1503 2 -0.342119 -5.43076 -4.43045 
1747 2 0.179352 -5.33978 -3.75186 
1818 2 -0.759499 -5.90269 -3.57759 
1984 2 1.51557 -4.71191 -4.39266 
1486 2 0.922151 -5.0935 -3.97336 
1563 2 1.53 -4.98978 -3.40648 
673 1 1.89588 -5.5841 -4.63826 
64 1 3.49888 -5.50282 -3.59232 
931 1 3.56733 -5.18369 -4.282 
131 1 4.42862 -4.93307 -4.26941 
1090 2 4.88713 -5.76681 -4.54846 
180 1 4.39873 -4.59042 -5.0578 
2034 2 5.50343 -5.70399 -3.92503 
373 1 5.92038 -3.97655 -4.85768 
339 1 -5.9518 -4.29531 -3.92156 
75 1 -5.20415 -3.9425 -4.26624 
1559 2 -3.63692 -3.98805 -4.98868 
1931 2 -4.82891 -4.88109 -4.29646 
465 1 -4.37088 -3.62571 -4.0674 
622 1 -4.34449 -3.24871 -4.83649 
1425 2 -2.92873 -4.21577 -4.22886 
816 1 -2.3983 -3.23242 -3.26851 
1197 2 -1.07779 -2.82413 -5.8164 
1602 2 -2.27394 -3.80965 -4.64434 
1991 2 -1.90698 -3.91393 -3.82144 
855 1 -1.60138 -4.62699 -4.69811 
1848 2 -1.15008 -3.68495 -3.27858 
227 1 0.1695 -4.13081 -4.00474 
819 1 0.377867 -3.83295 -4.95384 
20 1 0.992519 -3.85627 -4.12765 
136 1 1.98931 -3.40962 -4.08342 
1198 2 3.51727 -4.05141 -4.67326 
2004 2 2.91446 -4.22753 -4.16627 
1019 1 2.7326 -3.49102 -3.43552 
1319 2 4.85231 -3.50786 -4.0322 
1592 2 3.63751 -4.40135 -3.65101 
284 1 5.23057 -4.63799 -4.02212 
1657 2 4.51179 -3.92625 -3.43114 
242 1 5.13814 -4.21324 -4.80349 
1995 2 5.10775 -3.1068 -4.79779 
1483 2 -5.90031 -2.75344 -4.78859 
1491 2 -5.14827 -2.52033 -4.51374 
1937 2 -5.42701 -3.08503 -3.74068 
784 1 -5.64527 -2.16885 -3.23205 
965 1 -3.47003 -3.29131 -3.99523 
1296 2 -3.6636 -2.44257 -3.53962 
1465 2 -4.49583 -2.58737 -3.87946 
150 1 -2.59077 -3.05113 -4.07998 
151 1 -1.76639 -2.74184 -3.75776 
236 1 -0.818277 -2.34542 -3.88707 
677 1 -1.25808 -2.68743 -2.98405 
1881 2 -0.963094 -3.30273 -4.25335 
1581 2 -0.194708 -3.15463 -4.26154 
313 1 -0.41743 -2.37576 -3.09533 
1894 2 0.515492 -2.9682 -3.84893 
1263 2 1.50435 -2.81239 -3.20474 
639 1 2.98982 -3.09622 -4.15948 
939 1 2.25125 -3.07688 -4.85486 
1947 2 1.60808 -2.42978 -3.95517 
485 1 3.87444 -2.74861 -4.16214 
928 1 4.6028 -2.46829 -3.83962 
1750 2 5.7155 -3.16411 -4.04138 
385 1 4.90792 -2.098 -4.50311 
550 1 5.58898 -2.07575 -3.82895 
179 1 -5.33184 -1.59163 -4.11774 
1030 2 -5.56471 -0.643543 -4.34815 
205 1 -4.82686 -1.77203 -3.46095 
161 1 -4.15364 -1.15488 -3.95987 
1664 2 -2.98386 -2.08916 -3.88601 
948 1 -3.31569 -1.02742 -3.65182 
1271 2 -2.61231 -1.52471 -4.72088 
1867 2 -2.49436 -2.09069 -3.20976 
717 1 -2.43168 -0.705837 -3.62429 
214 1 -3.00746 -0.588309 -4.41978 
1097 2 -2.11668 -1.68582 -3.89845 
1870 2 -1.53556 -1.11124 -4.44309 
599 1 0.408057 -1.91442 -3.6052 
1804 2 0.683548 -0.845223 -2.71957 
657 1 -0.248715 -1.84748 -4.31942 
1223 2 -0.548185 -0.770432 -4.07605 
830 1 0.800195 -1.49434 -4.27005 
674 1 0.837404 -1.20169 -5.13524 
287 1 1.18379 -1.75481 -3.22106 
404 1 1.66718 -1.01146 -4.74323 
1363 2 2.21165 -2.00496 -4.47081 
421 1 1.7207 -1.22901 -3.86924 
691 1 2.70177 -1.11032 -3.33152 
1676 2 3.06188 -1.27524 -5.4975 
1738 2 3.91305 -1.44448 -4.11031 
403 1 5.71469 -1.74391 -4.57178 
1775 2 4.88155 -1.21716 -3.67017 
1634 2 5.52257 -0.792121 -3.98439 
1128 2 4.20153 -1.89569 -3.10421 
2048 2 -4.06245 0.146393 -4.31365 
900 1 4.58686 0.180004 -4.64042 
1792 2 -4.69673 -0.28133 -3.9285 
1754 2 -3.31018 0.352935 -4.12069 
848 1 -1.71875 -0.26632 -3.88066 
1876 2 -2.75721 0.84584 -4.50283 
1104 2 -2.5264 0.463662 -3.62103 
254 1 -1.38176 0.253591 -4.65847 
704 1 -0.776616 0.279184 -4.04054 
1500 2 0.0581061 -0.517521 -4.54398 
1673 2 0.7191 -0.584459 -3.83636 
594 1 0.166633 0.336893 -3.75597 
517 1 0.753132 0.371951 -2.86935 
1570 2 0.813985 -0.138563 -4.90759 
1644 2 1.46569 -0.135 -4.18789 
2041 2 1.86908 0.29447 -4.91658 
1963 2 2.2351 0.227276 -3.89632 
427 1 2.627 -0.991932 -4.14205 
1572 2 3.64342 0.812924 -4.3527 
42 1 3.45249 -0.517797 -3.84627 
2008 2 2.93353 0.66877 -4.09769 
125 1 4.10985 -0.220982 -4.02577 
32 1 5.06312 0.0154712 -3.67551 
278 1 -5.86021 0.575953 -3.89071 
1361 2 -5.16011 1.59201 -3.46924 
1728 2 -4.86192 2.08344 -4.15829 
697 1 -4.5057 1.22676 -4.70395 
230 1 -5.00206 1.42471 -5.31189 
824 1 -4.13362 1.1124 -3.99699 
752 1 -3.16801 1.96562 -4.95919 
903 1 -3.34687 1.54624 -4.05891 
1830 2 -1.88732 0.973205 -4.08984 
1999 2 -0.323847 1.83981 -5.09799 
1550 2 -0.925869 1.201 -3.5376 
1962 2 -0.511966 1.58906 -4.24557 
1054 2 1.10294 2.02607 -3.94693 
80 1 0.679652 0.786316 -4.40595 
401 1 0.945678 1.2753 -5.11802 
1021 1 1.08663 0.7288 -3.65992 
551 1 1.64058 1.10208 -4.32784 
382 1 2.29997 1.66544 -4.50086 
760 1 3.52199 1.95901 -3.87274 
1172 2 3.80309 0.631985 -3.52759 
232 1 4.49008 1.80808 -2.81979 
1068 2 -5.77452 1.84846 -4.3446 
1696 2 4.40614 1.24527 -4.20259 
1777 2 5.52037 1.41397 -4.01502 
1861 2 -5.16542 2.39237 -4.92832 
298 1 -4.48636 3.30906 -4.14745 
882 1 -5.47362 3.0966 -3.931 
631 1 5.69389 2.62773 -3.7176 
1959 2 -2.9576 3.12225 -4.20707 
1512 2 -3.99484 2.47892 -4.31133 
1092 2 -3.62698 2.52197 -3.59346 
1794 2 -2.75069 2.86886 -3.47578 
1175 2 -2.11231 3.35435 -4.14043 
1015 1 -2.63484 1.95882 -4.06474 
491 1 -0.781163 2.65491 -4.429 
982 1 -1.62519 2.118 -3.78383 
709 1 -1.74024 2.44438 -4.47851 
478 1 0.116114 2.30893 -2.77492 
1979 2 1.33565 2.53706 -4.65358 
1769 2 2.69113 2.3984 -2.65001 
561 1 0.753531 2.7797 -3.18704 
1653 2 2.83748 3.04684 -4.27919 
1461 2 2.70538 2.50155 -3.49551 
869 1 3.11438 2.07648 -4.66151 
1105 2 3.57723 2.78376 -3.28192 
1011 1 4.29835 2.07925 -3.64854 
2020 2 3.70847 3.27419 -3.93875 
2039 2 4.52009 3.22987 -3.47721 
726 1 4.77417 2.58193 -4.28928 
731 1 -5.63375 2.58399 -3.07812 
369 1 -5.01883 3.64337 -4.58878 
1278 2 -4.90472 4.43243 -3.77206 
45 1 -3.93273 3.84318 -4.07666 
322 1 -3.87232 3.42538 -3.25541 
460 1 -3.26442 4.03867 -3.75485 
772 1 -1.90947 4.09742 -3.14454 
276 1 -1.37467 4.55404 -3.64189 
1142 2 -1.08852 3.52298 -4.08238 
1625 2 -0.429365 3.95569 -4.10726 
1247 2 -1.26048 3.30419 -3.16931 
552 1 -0.0785513 2.57631 -3.70166 
1593 2 0.462208 4.17288 -3.81879 
2040 2 1.08973 4.67281 -4.26578 
448 1 0.921668 3.31541 -3.98115 
1267 2 1.40567 4.49528 -3.36805 
775 1 2.28748 3.81921 -3.92468 
896 1 1.61876 3.38175 -3.40515 
256 1 2.41249 3.43575 -3.00076 
143 1 3.17006 4.09169 -3.80908 
432 1 3.63073 4.62268 -4.92475 
34 1 4.03695 4.04612 -3.26773 
1779 2 5.26933 3.98124 -4.6613 
1977 2 -5.74469 4.16634 -4.21322 
825 1 -5.56924 5.12948 -3.35948 
662 1 5.72263 5.08408 -3.84277 
805 1 -4.08127 -5.90128 -3.86081 
1417 2 -4.07687 4.70101 -3.6848 
453 1 -4.4002 5.63762 -3.08235 
1138 2 -3.40446 5.23693 -4.22565 
1048 2 -4.41476 4.26561 -2.90526 
1413 2 -3.42708 4.8258 -3.06667 
1038 2 -1.66074 5.45838 -3.11167 
871 1 -0.487034 4.62273 -3.07114 
1191 2 -0.806482 5.54481 -2.79914 
123 1 -1.68863 4.76746 -4.64999 
41 1 -0.717212 4.99638 -4.1792 
959 1 1.88221 5.92585 -3.70217 
1042 2 2.14873 4.76928 -3.61931 
165 1 0.709409 5.59511 -4.02852 
1764 2 2.92461 5.29308 -4.00081 
1926 2 2.71133 4.90467 -3.0377 
43 1 2.66259 -5.77419 -3.52155 
1318 2 3.52652 5.04673 -3.2888 
1875 2 3.81665 5.51359 -3.84573 
1100 2 4.30076 5.29978 -2.77214 
1846 2 4.6977 5.73921 -3.69293 
370 1 4.05657 4.56912 -4.08498 
835 1 4.78272 4.89362 -4.40813 
181 1 4.74924 4.68365 -3.47738 
1192 2 5.92092 -5.89588 -3.07997 
1126 2 -5.03258 -5.5714 -2.72359 
1604 2 -4.98666 -5.80916 -1.73615 
273 1 -5.24001 -4.665 -2.31087 
1272 2 -4.15502 -5.46108 -1.89303 
1534 2 -4.43019 -5.03017 -3.3311 
1548 2 -4.01807 -5.04141 -2.68513 
119 1 -2.71486 -5.80878 -2.73707 
260 1 -1.2821 -5.09322 -3.3912 
229 1 -1.1885 -5.44606 -2.09859 
1014 1 -1.99075 -5.50781 -2.79867 
1928 2 -0.0338002 -5.73461 -2.8593 
1543 2 0.709487 -5.86497 -2.227 
295 1 -0.116391 -4.92288 -2.0382 
1344 2 0.838847 -5.28828 -2.99345 
1957 2 1.59383 -5.36128 -2.41738 
1828 2 2.36722 -4.64412 -3.57207 
1081 2 2.19517 -4.35032 -4.58268 
2017 2 3.0349 -4.73715 -3.03 
1749 2 2.92745 -5.07666 -2.2041 
1530 2 2.98637 -5.41111 -1.37049 
1765 2 3.74814 -4.91519 -1.87081 
667 1 4.50899 -5.14905 -3.38413 
847 1 3.88267 -5.55025 -2.89061 
141 1 3.3034 5.66934 -1.89492 
955 1 4.97997 -5.3972 -2.41738 
19 1 5.62575 -4.9977 -2.99321 
2010 2 -5.49323 -3.70715 -2.06917 
251 1 -4.87791 -4.04824 -3.52729 
1851 2 -4.67068 -3.29679 -2.14384 
1871 2 5.63981 -3.56944 -3.26084 
269 1 -4.54426 -4.23557 -2.6477 
441 1 -4.05257 -3.80383 -3.2851 
2000 2 -3.40979 -4.76505 -3.32787 
1046 2 -2.53557 -4.38515 -3.49958 
634 1 -3.16804 -3.50603 -3.23533 
1079 2 -1.61461 -4.127 -2.86595 
1896 2 -0.840446 -3.89776 -2.44939 
416 1 -0.319649 -4.52662 -3.30039 
1231 2 -0.242441 -3.43922 -3.21006 
249 1 0.613457 -4.22069 -3.38542 
938 1 1.7922 -3.82973 -3.45011 
954 1 0.400316 -4.59588 -2.59238 
1878 2 1.62728 -3.17607 -2.41682 
981 1 3.26503 -3.73397 -2.42516 
934 1 2.24695 -4.0326 -2.60535 
1232 2 4.07051 -4.42095 -2.77755 
100 1 3.35038 -3.9536 -1.52124 
1836 2 5.01037 -4.10426 -2.7586 
878 1 -5.59873 -4.44047 -3.11774 
1655 2 5.66285 -3.84146 -2.40482 
1817 2 -5.43912 -3.20465 -2.85144 
471 1 -5.90261 -2.44315 -2.39315 
754 1 5.26421 -2.63356 -2.95033 
1545 2 -4.49539 -2.89014 -3.01105 
1902 2 -3.06134 -2.58962 -2.82585 
1442 2 -3.77834 -2.87993 -2.49162 
753 1 -2.36315 -3.47089 -2.4074 
1908 2 -1.69915 -1.76281 -3.1966 
1537 2 -1.09432 -1.69593 -2.40128 
411 1 -0.779316 -2.73089 -2.15248 
398 1 -1.72337 -3.10532 -2.34809 
1457 2 0.760624 -3.24214 -2.96179 
1942 2 0.0687324 -3.6665 -2.43067 
844 1 0.617774 -2.20787 -2.68118 
597 1 1.4666 -2.01038 -2.4107 
1580 2 2.32252 -2.71782 -2.86708 
377 1 2.44683 -1.87495 -2.16415 
1645 2 3.41556 -2.35871 -2.87352 
1923 2 2.4871 -2.25817 -3.64397 
1787 2 3.02109 -2.82426 -2.24791 
1946 2 3.22897 -1.80077 -4.52251 
1001 1 3.58593 -3.24261 -3.38974 
352 1 4.29687 -3.39693 -2.46478 
1641 2 4.05196 -2.28335 -2.32704 
914 1 4.38277 -2.97439 -3.25152 
311 1 4.99304 -2.93122 -2.10941 
140 1 -4.96289 -2.03718 -2.70538 
2035 2 -5.5625 -0.833485 -3.39789 
636 1 -4.27157 -1.93894 -2.24615 
344 1 -3.45326 -1.66854 -2.00972 
592 1 -4.07544 -1.60933 -3.00967 
917 1 -3.32981 -1.35029 -2.85178 
499 1 -1.73294 -0.685597 -3.03742 
37 1 -2.47951 -1.16875 -2.82861 
1573 2 -1.083 -1.36159 -3.56977 
1345 2 0.182558 -1.04479 -3.35622 
1456 2 -0.50649 -1.32811 -2.96284 
234 1 -1.87055 -1.02228 -2.15339 
1517 2 0.183641 -1.40075 -2.28217 
1568 2 1.00819 -1.1885 -1.84575 
1057 2 1.39398 -0.428271 -3.27597 
1832 2 2.58688 -0.396508 -2.49078 
705 1 2.08378 -1.55382 -2.90982 
640 1 3.12124 -1.38235 -2.54039 
867 1 3.08771 -1.89045 -1.38255 
1259 2 3.15645 -1.8858 -3.69828 
700 1 3.62537 -0.852753 -3.04882 
116 1 3.68498 -1.2795 -1.89435 
1299 2 4.95806 -1.77469 -2.45648 
1237 2 5.44219 -1.36682 -3.1006 
1279 2 -5.55576 -1.12725 -2.45158 
1163 2 -4.82602 -0.603437 -3.03609 
299 1 -5.1143 0.390406 -2.78795 
708 1 5.85458 0.0890302 -3.04014 
397 1 -5.02427 0.712387 -3.71754 
1184 2 -3.80474 -0.153825 -3.38946 
1350 2 -3.87642 -0.497779 -2.65809 
94 1 -4.2383 0.722466 -3.12738 
1206 2 -3.02611 -0.208798 -2.38346 
1310 2 -3.00471 0.055173 -3.21456 
1025 2 -2.29307 0.210954 -2.69326 
1834 2 -1.29719 0.553468 -2.51879 
789 1 -1.08948 -0.246227 -3.25555 
615 1 -0.96953 -0.561362 -2.43217 
886 1 -0.236347 -0.165781 -3.08775 
121 1 0.193223 -0.0485218 -2.36596 
90 1 1.57101 0.780537 -2.87999 
842 1 2.59314 0.623703 -2.48438 
749 1 1.46675 0.355539 -2.04479 
1952 2 2.21646 -0.225187 -3.2614 
1529 2 3.13469 0.0948557 -3.14434 
198 1 4.34516 -0.806503 -2.42347 
1220 2 4.45403 0.537168 -2.97616 
2027 2 3.85911 0.190524 -2.58374 
241 1 4.70722 -0.462078 -3.0395 
297 1 5.31865 -0.290361 -2.60132 
1468 2 5.49377 0.920774 -2.63511 
1654 2 -3.71677 1.95531 -2.6702 
1282 2 -4.67527 1.64039 -2.69401 
1320 2 -5.8971 1.34663 -3.14546 
912 1 -5.33995 0.979158 -4.62138 
1839 2 -4.23045 1.95487 -3.31855 
1803 2 -3.62321 1.64662 -1.89085 
164 1 -3.46945 1.11175 -3.24617 
613 1 -2.51034 1.11751 -2.28324 
686 1 -3.32654 0.739062 -2.45567 
310 1 -2.5156 1.46918 -3.2105 
719 1 -1.48601 1.70839 -3.02016 
1643 2 -1.69982 0.619317 -3.25405 
494 1 -1.70576 1.44517 -2.32599 
2043 2 -0.40265 0.854549 -1.94138 
1436 2 -0.475117 0.872138 -2.76704 
1642 2 0.73514 1.75807 -3.25711 
1158 2 1.76786 1.99934 -3.03763 
1683 2 0.0332611 1.34161 -3.18624 
895 1 1.91166 1.04503 -3.55649 
1050 2 1.25291 1.62454 -2.32377 
447 1 2.72359 1.57307 -3.82521 
894 1 2.69177 1.19716 -3.13829 
1825 2 3.03884 2.02935 -1.94323 
621 1 3.55493 1.46039 -3.10879 
944 1 4.953 1.68477 -2.13669 
243 1 3.1744 1.03601 -2.19152 
1986 2 4.9188 1.01104 -3.40421 
811 1 -5.55264 2.19537 -2.00337 
171 1 5.16228 2.24549 -3.30098 
2030 2 -5.36797 1.17363 -2.46056 
204 1 -4.79092 3.03617 -3.44695 
351 1 -4.96219 2.60819 -2.55415 
2021 2 -3.01721 2.37292 -2.82279 
568 1 -3.33763 3.22777 -2.4915 
879 1 -4.25324 3.08018 -2.64961 
1689 2 -2.23477 2.44553 -2.54233 
1415 2 -1.97985 2.98188 -3.26329 
1485 2 -1.34232 2.74274 -2.34748 
1268 2 -0.45768 3.04979 -1.60517 
301 1 -0.681053 2.04375 -2.94355 
593 1 -0.867338 2.28792 -3.68663 
208 1 0.28789 2.19587 -1.96438 
1183 2 -0.414879 3.11629 -2.52369 
660 1 0.823753 2.59417 -2.2715 
1994 2 2.1998 1.81938 -2.2787 
747 1 1.5751 2.53797 -1.6098 
1065 2 3.57276 2.42999 -2.51167 
828 1 2.66907 3.20457 -2.02438 
1686 2 4.32833 2.80887 -2.68921 
1786 2 5.13235 3.43139 -3.01402 
1026 2 5.2764 2.28916 -0.787525 
702 1 5.60374 2.11701 -2.55874 
1522 2 4.54505 2.57758 -1.76825 
1636 2 5.44293 2.73784 -1.48056 
1670 2 -5.28531 3.93365 -3.24591 
1072 2 5.88255 3.68418 -3.30742 
1333 2 -5.09766 3.69743 -2.29779 
1971 2 -3.83696 4.32171 -2.42995 
381 1 -2.87009 3.73538 -3.03097 
111 1 -2.32784 3.66401 -2.45952 
26 1 -1.6166 3.7351 -1.98928 
520 1 -2.64955 3.32946 -1.82972 
17 1 -1.16729 4.30017 -2.70727 
1668 2 -0.234119 3.60588 -3.30784 
516 1 -0.0185533 4.45694 -2.26693 
1499 2 2.01399 4.32321 -2.51441 
1071 2 0.693204 4.01631 -3.09644 
1869 2 1.27135 4.00346 -2.33614 
937 1 1.60761 2.9883 -2.43808 
1428 2 2.00158 3.89062 -1.64489 
1854 2 2.82261 4.41367 -2.32732 
906 1 3.20193 3.59657 -2.91403 
641 1 3.86679 3.81071 -2.47524 
1662 2 5.11462 3.01385 -2.26713 
1349 2 5.30897 3.64758 -3.99014 
918 1 5.62494 4.18464 -2.01654 
650 1 4.7709 3.85259 -1.7495 
742 1 4.85926 4.39825 -2.69675 
946 1 5.6053 4.6584 -2.99273 
355 1 -5.24941 4.4881 -1.57523 
443 1 -5.59816 4.72391 -2.35095 
579 1 -3.80544 5.76398 -2.46634 
961 1 -4.75252 5.1139 -2.49897 
1008 1 -3.40591 -5.87001 -3.2464 
1127 2 -2.7976 5.24074 -3.61414 
1419 2 -2.99028 4.54658 -2.21444 
589 1 -3.0594 5.70901 -2.03304 
1339 2 -1.75912 5.05943 -2.15537 
1575 2 -2.48523 4.96207 -2.76825 
612 1 0.00163456 5.25182 -3.69416 
361 1 0.491558 5.02979 -2.76294 
1265 2 -1.01853 5.25037 -1.88814 
1136 2 -0.103605 5.65717 -2.00633 
736 1 1.10432 5.48962 -3.19487 
564 1 0.655738 4.68056 -1.856 
343 1 1.49092 5.07057 -2.21497 
182 1 2.91752 5.8923 -2.66584 
487 1 1.91054 5.57987 -2.82527 
422 1 2.36568 5.51613 -2.09875 
1405 2 3.60145 4.79495 -2.31165 
1489 2 4.60491 5.11825 -2.02109 
2016 2 -5.67523 5.80545 -2.37547 
1699 2 5.18055 5.64129 -2.78919 
798 1 5.90316 -5.02117 -2.10442 
504 1 -5.284 -4.97933 -1.47905 
1261 2 -4.0563 -5.8349 -1.03653 
1285 2 -3.25058 -5.15165 -1.8142 
1312 2 -3.3025 -5.50398 -0.934961 
991 1 -4.32296 -4.96775 -0.756261 
1454 2 -2.47409 -5.01636 -1.603 
1047 2 -3.15372 -4.87303 -2.57791 
326 1 -1.35787 -5.86559 -1.25798 
1477 2 -1.74322 -4.82572 -1.13326 
305 1 -0.778082 -4.98133 -2.70407 
672 1 -0.424761 -5.49245 -1.48236 
317 1 0.353239 -5.40553 -1.04809 
459 1 0.741038 -4.81877 -1.77925 
257 1 1.47667 -4.42492 -2.09851 
1915 2 2.27706 -5.21208 -2.73594 
1859 2 2.14783 -5.61525 -1.60422 
1129 2 4.97755 -4.66301 -1.17189 
1487 2 4.09131 -4.97386 -1.04846 
802 1 5.78833 -5.53137 -1.43064 
153 1 4.88215 -5.63431 -1.61718 
1521 2 5.72528 -4.67166 -0.518858 
542 1 4.81237 -5.95186 -0.809706 
1948 2 -5.69215 -4.14968 -1.06484 
1449 2 -4.83072 -3.76402 -1.35506 
524 1 -4.47449 -4.60666 -1.55901 
2007 2 -3.94159 -3.13119 -1.62497 
71 1 -3.57032 -3.91458 -2.50827 
21 1 -3.7731 -4.03388 -1.75758 
890 1 -2.98584 -3.76541 -1.97999 
907 1 -2.07598 -4.31188 0.0437097 
1394 2 -2.34616 -4.59203 -2.48772 
1783 2 -1.50576 -4.39583 -2.08752 
875 1 -1.98611 -3.61224 -1.61563 
324 1 -2.17711 -3.91131 -0.776998 
526 1 -1.41432 -3.61604 -0.822915 
1613 2 -0.586255 -4.23157 -1.57879 
1985 2 0.00180461 -4.41839 -0.802404 
1748 2 0.286441 -3.809 -1.47483 
569 1 1.22895 -4.26703 -2.85527 
1973 2 2.28235 -3.02693 -1.83223 
1658 2 0.944282 -3.51273 -2.02802 
661 1 2.51306 -4.26431 -1.86661 
328 1 3.94266 -3.92171 -0.924577 
1066 2 2.89234 -3.06966 -1.20645 
321 1 4.38718 -3.75883 -1.61278 
522 1 4.70976 -3.77122 -0.565759 
1737 2 4.5534 -4.62124 -1.98507 
1844 2 5.43266 -4.32171 -1.77358 
602 1 5.01426 -3.35279 -1.20854 
968 1 5.93149 -2.82168 -1.56948 
532 1 -5.0221 -2.33629 -1.8018 
58 1 -5.15614 -2.8582 -0.861542 
734 1 -4.33275 -2.41614 -1.18285 
291 1 -4.03878 -2.55112 -0.485105 
1478 2 -3.02863 -2.62105 -2.0395 
1911 2 -2.07669 -2.2411 -2.47445 
1993 2 -3.11195 -2.89952 -1.29315 
1077 2 -2.32304 -2.66079 -1.51507 
986 1 -0.96219 -3.22648 -1.53704 
1781 2 -0.349927 -1.7869 -1.72993 
1574 2 -1.46812 -2.1358 -1.68919 
388 1 0.126052 -2.56867 -2.07014 
998 1 0.927431 -2.45724 -1.7333 
11 1 -0.0567107 -2.92472 -1.27098 
1289 2 -0.702985 -2.20393 -0.948439 
566 1 1.64978 -2.61053 -0.837939 
106 1 1.76932 -2.21332 -1.56266 
347 1 0.807376 -2.84892 -1.02782 
626 1 2.49669 -2.09712 -0.891349 
1708 2 3.63076 -2.68392 -1.61774 
629 1 3.00252 -2.19188 -0.146067 
1167 2 4.20022 -2.6911 -0.940062 
1996 2 4.90387 -2.38246 -0.527085 
213 1 5.82884 -3.25405 -0.868686 
1492 2 5.44971 -1.99514 -1.05583 
1978 2 -4.46182 -0.757298 -2.19158 
1940 2 -5.62852 -1.70933 -1.28396 
1352 2 -4.13925 -1.25733 -1.25499 
1393 2 -4.91888 -1.2526 -1.83981 
1826 2 -3.47924 -0.725087 -1.71945 
1028 2 -3.73881 -1.28816 -0.377176 
1972 2 -2.57136 -0.41653 -1.79345 
767 1 -3.57863 -2.05619 -1.24713 
548 1 -2.66369 -1.51074 -2.08065 
419 1 -0.432254 -1.07544 -0.749021 
963 1 -1.67097 -1.15484 -1.37463 
252 1 -1.30528 -1.50719 -0.452217 
1635 2 0.492869 -1.69449 -1.37002 
1086 2 0.116371 -1.94995 -0.730972 
1682 2 1.25514 -1.36744 -0.862294 
630 1 -0.942382 -0.763665 -1.42905 
2046 2 1.68407 -0.60701 -2.44126 
1659 2 1.85755 -1.11424 -1.52611 
1819 2 2.64372 -0.833479 -1.66425 
1505 2 3.30801 -0.159847 -2.02852 
846 1 3.66326 -1.67795 -0.749379 
1916 2 2.96903 -0.946617 -0.831518 
518 1 4.22395 -1.17076 -1.34012 
279 1 4.85535 -0.866298 -1.85819 
1286 2 5.61302 -1.60331 -1.88933 
1148 2 4.58227 -2.07959 -1.67223 
958 1 5.65755 -0.617691 -1.59583 
654 1 -5.63959 -0.144972 -2.16282 
737 1 -5.71846 -0.690989 -1.01001 
489 1 -4.66312 0.211276 -2.02616 
818 1 -4.08966 0.46141 -2.39918 
472 1 -3.88293 0.355368 -1.45126 
259 1 -3.20255 0.26685 -0.715631 
921 1 -3.11612 0.430791 -1.56916 
1432 2 -1.8447 -0.0448559 -1.93378 
1893 2 -2.23884 -0.378753 -0.941269 
189 1 -2.35904 0.611623 -0.704052 
1589 2 -0.808442 0.385008 -1.67116 
776 1 -0.355238 -0.588964 -1.95001 
1067 2 -0.0869513 0.319043 -0.930988 
1386 2 0.33368 0.895898 -1.52261 
502 1 0.0896449 -0.520293 -1.2036 
625 1 0.745139 -0.175178 -1.69064 
874 1 2.38463 0.064713 -0.657013 
1373 2 1.558 0.811255 -0.704174 
408 1 2.34235 0.40379 -1.58761 
870 1 3.29464 0.427769 -0.537723 
1858 2 3.39877 -0.38139 -1.27864 
1059 2 4.91064 0.47963 -2.26844 
1897 2 3.99336 -0.3001 -0.604104 
692 1 -5.07676 -0.20682 -1.39765 
1564 2 5.83639 0.672911 -1.80613 
1508 2 4.23545 0.0251339 -1.68985 
446 1 -4.91641 2.35852 -1.49677 
2038 2 -5.22131 0.856579 -1.40533 
1229 2 -4.75449 1.31019 -1.88871 
1003 1 -5.45746 1.77205 -0.870021 
1720 2 -4.23034 1.24058 -1.2126 
2047 2 -3.25616 1.58051 -1.23984 
1981 2 -1.51793 2.13464 -0.651129 
115 1 -2.28284 0.830467 -1.47954 
1727 2 -2.38594 1.85482 -0.920309 
585 1 -1.38931 1.37541 -1.51586 
134 1 -0.682525 1.44759 -1.1188 
240 1 -0.583413 1.85383 -1.9655 
1187 2 0.532924 1.17476 -2.40412 
823 1 0.342842 1.79117 -1.14124 
614 1 0.0633354 1.34735 -0.547752 
1681 2 1.22667 1.1329 -1.6125 
1297 2 1.91686 1.5021 -1.56223 
50 1 3.12398 0.646788 -1.43018 
1134 2 2.82824 1.62838 -1.26208 
1340 2 4.07267 1.63381 0.0268277 
194 1 4.07174 1.18143 -2.21016 
783 1 4.01171 0.999043 -1.31941 
95 1 5.71374 1.36504 -0.694634 
761 1 5.67943 1.57747 -1.56554 
1000 1 -4.62516 2.12435 -0.642028 
966 1 -4.14181 2.67574 -1.90347 
1330 2 -5.66834 3.1863 -1.46677 
294 1 -3.40725 2.95672 -1.60023 
739 1 -3.86501 2.50951 -0.903585 
1679 2 -2.83316 2.03287 -1.88531 
16 1 -2.84005 2.91634 -0.921312 
567 1 -3.07589 2.43146 -0.334177 
1304 2 -1.91587 2.22414 -1.59854 
1983 2 -0.986797 2.57491 -1.23875 
2023 2 -0.63954 2.23881 -0.341684 
1616 2 -0.030835 2.86045 -0.81622 
1974 2 0.802108 3.06464 -0.76609 
608 1 0.98417 1.72604 -0.495972 
44 1 1.07191 2.13486 -1.17686 
114 1 1.67048 1.96074 -0.193234 
843 1 2.02152 2.36889 -0.829035 
1099 2 1.97026 3.53423 -0.885469 
1838 2 3.74486 2.08627 -1.49787 
183 1 2.90094 2.51701 -0.385947 
945 1 2.47828 2.73 -1.3115 
510 1 3.23323 2.9107 -1.1364 
1368 2 3.54886 1.72786 -0.678272 
379 1 4.67028 3.20766 -0.479589 
582 1 3.58561 3.31272 -1.86894 
1866 2 4.3963 2.15173 -0.94326 
1811 2 -5.98155 2.85491 -0.623051 
1554 2 -5.92492 3.39748 -2.43067 
993 1 5.87828 4.13487 -1.19456 
506 1 -4.43857 5.04407 -1.64068 
13 1 -5.19823 4.26958 -0.638084 
1757 2 -4.15892 3.81615 -1.65992 
1056 2 -4.95994 3.55788 -1.5369 
1335 2 -4.25583 3.46226 -0.763411 
1814 2 -3.44641 3.74231 -0.698733 
1287 2 -3.37157 4.13641 -1.68347 
925 1 -1.9321 3.35919 -1.26486 
1992 2 -2.29031 4.62564 -1.56898 
2033 2 -2.63279 4.1236 -1.00295 
733 1 -0.68621 4.12559 -2.13652 
418 1 -0.912251 3.981 -1.35845 
1406 2 0.445563 3.56212 -2.46444 
224 1 -0.237759 3.94891 -0.532993 
627 1 -0.0100696 4.30964 -1.41172 
905 1 1.12871 4.59592 -1.26684 
985 1 0.598489 4.13586 -0.581367 
1997 2 0.408612 3.26196 -1.70344 
652 1 1.56416 4.4125 -0.23752 
1913 2 1.17532 3.56926 -1.36085 
1161 2 2.95337 4.08796 -1.58219 
1610 2 2.81763 3.93512 -0.77258 
1234 2 3.90447 4.50771 -1.61654 
1178 2 3.68421 4.19377 -0.928703 
1842 2 3.73681 3.96316 -0.157531 
690 1 4.27183 3.41983 -1.10229 
258 1 5.20564 3.61114 -0.946438 