ITEM: TIMESTEP
16500
ITEM: NUMBER OF ATOMS
2048
ITEM: BOX BOUNDS pp pp pp
-5.9293687011001399e+00 5.9293687011001399e+00
-5.9293687011001399e+00 5.9293687011001399e+00
-5.9293687011001399e+00 5.9293687011001399e+00
ITEM: ATOMS id type x y z 
1227 2 -5.06642 -4.64099 -4.7807 
14 1 -4.93972 -5.77156 -5.29307 
333 1 -3.58981 -5.02704 5.84963 
805 1 -4.14756 -5.39249 -4.99146 
554 1 -4.38069 -5.0965 -5.76577 
91 1 -2.64614 -4.68918 -5.34065 
1958 2 -2.32117 -5.52493 5.56081 
247 1 -3.41949 -5.14969 -5.15296 
416 1 -2.01177 -4.66014 -4.84423 
1542 2 -1.45809 -5.73928 -4.71704 
1035 2 -0.791439 -5.34626 -5.17999 
1429 2 -0.158795 -4.80063 -5.66213 
495 1 0.899505 -5.78956 -5.55522 
1260 2 0.623083 -4.7008 -5.29254 
648 1 1.09209 -5.38958 5.66779 
673 1 1.26117 -5.83112 -4.83934 
575 1 1.90539 -5.36645 -5.45255 
442 1 2.72568 -5.08471 -5.26522 
1704 2 4.11173 -5.40078 5.75291 
180 1 3.52782 -4.78897 -4.79581 
1612 2 5.30177 -5.47047 -4.62509 
19 1 3.51817 -4.63389 -5.84154 
1192 2 4.60765 -5.75857 -5.26579 
1799 2 -5.66854 -5.12661 -4.64077 
251 1 -5.03902 -3.31574 -5.09894 
1734 2 -5.6699 -4.77791 -5.6368 
1103 2 -4.66382 -4.23097 -5.55243 
1046 2 -3.68664 -4.19503 -5.15891 
1711 2 -2.91472 -3.65916 -5.14704 
765 1 -1.83155 -4.22208 -5.83411 
1630 2 -2.98028 -3.56686 5.85714 
2009 2 -2.11211 -3.30003 -5.46228 
227 1 -0.204408 -4.07593 -4.88457 
924 1 -0.936892 -4.11449 -5.42132 
77 1 -0.825944 -3.64284 5.56898 
1617 2 -2.07525 -2.89745 5.55206 
819 1 0.649029 -3.7919 -4.79296 
202 1 0.0107403 -3.60018 -5.48971 
1709 2 1.26676 -4.28845 -5.69407 
1486 2 1.71452 -4.43371 -5.03524 
136 1 1.45688 -2.7928 5.69908 
1790 2 2.1942 -3.89488 -5.89739 
1678 2 3.25674 -3.6347 -5.39501 
1887 2 2.49988 -4.19775 -4.90936 
1483 2 3.85761 -3.24952 -5.77796 
496 1 4.30005 -4.49461 -5.4488 
511 1 5.77736 -3.87107 -5.27711 
57 1 4.86264 -3.88532 5.80958 
223 1 5.00883 -4.16106 -5.04741 
1937 2 -5.43968 -2.23403 -4.98904 
1475 2 -4.79518 -2.02228 -5.39883 
353 1 -4.25482 -3.29874 -4.85769 
1588 2 -4.21361 -2.19637 -4.77361 
465 1 -4.30208 -2.975 -5.70181 
218 1 -3.52743 -2.93011 -4.66016 
664 1 -3.29772 -2.7371 -5.38464 
151 1 -1.69649 -1.80315 -5.58707 
236 1 -2.30586 -2.38208 -5.32211 
1379 2 -1.14199 -2.74836 -5.78212 
35 1 -1.65627 -2.46805 -4.42916 
1370 2 -1.41088 -3.35488 -4.95528 
1525 2 -0.073009 -2.37964 -5.89437 
1820 2 0.84743 -2.02302 -5.86441 
1555 2 0.386392 -2.41036 -5.19366 
1190 2 1.95959 -1.80481 -5.36383 
547 1 1.70331 -3.20345 -5.30414 
939 1 2.33391 -2.62547 -5.8122 
485 1 3.14634 -2.30708 -5.51579 
1232 2 4.7622 -3.29654 -4.64854 
904 1 4.00146 -2.15327 -5.42504 
475 1 3.83366 -1.82516 5.7278 
1129 2 5.5685 -2.9104 -4.7798 
1995 2 4.83206 -2.95817 -5.47688 
2032 2 5.68677 -2.73182 -5.60114 
740 1 -5.25793 -1.13203 -5.01859 
784 1 -5.72805 -1.61233 -4.26323 
771 1 -4.57075 -0.823002 -5.36959 
1745 2 -3.53919 -1.76998 -5.14564 
833 1 -4.01507 -0.888213 -4.6996 
1733 2 -3.07255 -1.2241 -5.51481 
1271 2 -2.4514 -1.32684 -4.94208 
1809 2 -2.3084 -0.807499 -5.89924 
1345 2 -1.74203 -0.937026 -5.06588 
830 1 -0.981141 -1.86884 -5.05328 
578 1 0.687265 -1.05919 -5.49578 
367 1 -0.0837667 -1.07406 5.60369 
8 1 -0.139213 -1.45652 -5.10015 
1964 2 2.33928 -1.27491 -5.88231 
788 1 1.53298 -0.805089 -5.36164 
1590 2 3.54447 -0.921134 -5.72289 
1676 2 3.07982 -1.30064 -5.21247 
1259 2 4.00547 -1.28662 -4.83799 
1775 2 4.53107 -0.897549 -5.32136 
2036 2 5.09149 -0.780959 -4.68433 
308 1 5.83464 -1.37053 -5.58255 
999 1 4.70007 -2.17252 -4.80823 
609 1 5.48937 -1.75553 -5.02927 
1797 2 -5.16906 0.642895 5.40146 
1498 2 -4.92889 0.199321 -5.09623 
1346 2 -3.87814 0.590658 -5.16291 
505 1 -3.58546 -0.282904 -5.3296 
2028 2 -4.55924 0.714129 -5.71975 
451 1 -2.32286 -0.0302416 -5.17148 
789 1 -1.39307 0.290004 -4.99242 
1171 2 -1.09421 -0.506652 -5.47884 
1975 2 -0.220287 -0.669024 -4.41352 
1963 2 -0.369726 -0.376872 -5.13751 
42 1 2.30118 -0.357623 -5.22172 
1852 2 1.37236 0.253388 -5.12249 
1210 2 1.50578 0.814486 5.81873 
31 1 2.55794 -0.22974 5.89265 
1180 2 2.23645 0.414459 -4.51218 
116 1 2.76869 -0.63402 -4.42792 
560 1 3.1763 -0.0652323 -5.36687 
758 1 3.68438 -0.292033 -4.55131 
60 1 4.20824 0.124228 -5.11652 
1494 2 -5.49084 0.208998 -5.68331 
1623 2 5.72838 -0.262716 -5.07881 
656 1 -5.44965 0.884578 -4.59602 
752 1 -4.94652 1.45691 -5.09411 
915 1 -5.51727 1.39506 -5.80033 
1962 2 -3.22588 0.967145 -5.55403 
190 1 -3.63283 1.94381 -5.2075 
1256 2 -1.60932 1.33656 -4.79784 
1736 2 -2.84915 0.69869 -4.77024 
1343 2 -2.37602 1.20709 -5.24293 
517 1 -1.42816 0.802633 5.62344 
1298 2 -1.48325 1.76769 -5.77173 
1054 2 -0.829613 1.74973 -5.16154 
842 1 0.281684 1.20271 -5.32623 
254 1 -0.846056 0.794493 -5.54803 
551 1 1.04288 1.22218 -4.68159 
380 1 1.52027 1.72486 -5.37261 
2041 2 2.26284 0.764913 -5.48442 
895 1 2.44582 1.92724 -5.19781 
760 1 1.98149 1.49853 -4.58456 
1785 2 3.07405 0.602461 -4.26744 
1882 2 2.72503 1.21723 5.81135 
1470 2 3.90438 1.18998 -4.994 
469 1 5.11238 0.542845 -4.90791 
302 1 5.7694 0.976417 -5.30316 
1204 2 4.47928 1.69046 -5.50802 
1068 2 4.63953 1.32831 -4.61304 
1403 2 -5.15365 2.35165 -4.67604 
1377 2 -5.12427 2.71087 -5.58824 
1497 2 5.42699 1.89757 -4.96501 
1175 2 -3.44467 3.07819 -5.26222 
1142 2 -4.34492 2.81183 -4.91732 
982 1 -2.74816 2.26717 -5.29345 
1625 2 -2.87276 3.18116 -4.50993 
852 1 -1.94491 2.75544 -5.42517 
593 1 -0.709603 2.98712 -5.34278 
1884 2 -0.0138046 2.03675 -5.04227 
1653 2 0.545857 2.10028 -4.44265 
1506 2 0.538997 2.49697 -5.54319 
1769 2 1.23542 2.63534 -4.92908 
1130 2 1.88917 2.95973 -5.42403 
401 1 2.03308 2.04574 5.74474 
796 1 3.21831 2.33102 -5.43076 
2020 2 2.1781 2.8646 -4.6275 
574 1 3.98102 2.12181 -4.53856 
869 1 4.01384 2.4648 -5.32236 
396 1 4.79913 2.78137 -4.95354 
923 1 -5.03506 3.58049 -4.96996 
1088 2 -5.31353 4.5376 -4.79213 
45 1 -4.52639 4.02894 -5.64876 
92 1 -3.79142 4.07982 -5.06126 
676 1 -4.28227 3.69777 -4.54047 
687 1 -3.40345 4.50843 -5.54753 
1869 2 -2.38703 3.67324 -5.10954 
1934 2 -2.9614 3.58434 -5.76972 
1824 2 -1.28768 3.97667 -5.13447 
1268 2 -1.70454 3.63263 -4.56427 
1096 2 -1.84647 4.05249 -5.74276 
1480 2 -0.668732 4.2504 -5.67936 
561 1 -0.287732 3.01429 -4.61546 
1336 2 -0.124815 4.30319 -4.98099 
56 1 0.264613 3.43339 -5.24505 
709 1 1.33955 3.88935 -5.15482 
76 1 1.82106 3.7399 -4.42087 
1628 2 2.93944 3.26917 -5.21619 
1979 2 2.46862 3.32973 5.75419 
884 1 2.07926 4.18354 -5.51757 
256 1 2.48994 4.24224 -4.87091 
1274 2 3.45674 3.16754 -4.55503 
1618 2 4.10523 3.61321 -4.93365 
204 1 5.31348 2.828 -4.37133 
1640 2 5.87385 4.54242 -5.3897 
1779 2 4.77621 4.28911 -5.40987 
1073 2 4.9503 3.98215 -4.72233 
435 1 -5.68429 5.75227 -5.18278 
1670 2 -4.75253 5.06542 -5.3417 
1191 2 -4.3179 4.85325 -4.60247 
1510 2 -3.73043 5.47002 -5.18992 
1127 2 -4.21627 5.56083 5.86465 
1551 2 -3.06605 5.44417 -4.53388 
1365 2 -2.91335 5.83409 -5.66484 
1526 2 -2.4077 5.9407 -4.91805 
638 1 -1.84009 5.05136 -5.48459 
221 1 -1.56888 4.93541 -4.61793 
428 1 -1.00316 5.12099 -5.21178 
729 1 -0.825762 5.63633 -5.86526 
350 1 0.560999 5.59617 -4.442 
1145 2 0.463131 4.89185 -5.64963 
528 1 0.0846963 5.72973 -5.21292 
2040 2 0.980122 4.81696 -4.82037 
1093 2 1.25136 5.21917 -5.74856 
1955 2 1.88647 5.18321 -5.08932 
1691 2 2.84393 5.59387 -5.18543 
777 1 2.97501 4.45505 -5.65365 
1875 2 3.58222 -5.75264 -5.43034 
407 1 4.12893 5.10568 -5.15605 
501 1 3.58888 4.50638 -4.94038 
1559 2 3.94871 -5.86085 -4.62203 
18 1 3.60147 5.01884 -5.82303 
699 1 5.45257 5.22496 -4.89153 
1969 2 5.28351 4.57484 5.77804 
1002 1 4.25411 5.39195 5.66552 
1849 2 -5.20565 -5.28471 -3.81065 
1663 2 -3.73567 -4.54375 -3.92611 
1418 2 -4.49674 -4.85812 -4.05155 
346 1 -4.33735 5.91835 -4.24252 
1261 2 -3.34804 -4.74761 -3.04979 
508 1 -3.54621 -5.55205 -4.31843 
274 1 -2.64758 -5.48784 -3.45821 
453 1 -2.74113 -5.14937 -4.40497 
855 1 -1.21086 -4.57426 -4.6461 
1151 2 -0.749776 -5.76112 -4.09054 
5 1 -2.03624 -4.97938 -4.18605 
1291 2 0.0135692 -5.22318 -4.84983 
1338 2 0.78966 -5.12623 -3.63367 
1029 2 0.100801 -5.40136 -4.08319 
1334 2 0.927422 -4.89397 -4.46726 
1082 2 1.74648 -4.82306 -4.18328 
959 1 2.18406 -5.92975 -3.96128 
425 1 2.32737 -5.59349 -4.69752 
487 1 2.90148 -5.79895 -3.49622 
955 1 3.01525 -5.44871 -4.15664 
667 1 3.88961 -4.96109 -4.00813 
809 1 5.01272 -4.78912 -3.89922 
1358 2 5.81518 -5.66697 -3.78206 
1773 2 -5.34668 -5.50389 -2.9508 
373 1 -5.55618 -3.7617 -4.62021 
991 1 -5.16194 -4.03295 -3.79514 
1633 2 -4.15154 -4.19016 -4.63493 
273 1 -4.71145 -3.55352 -4.14615 
483 1 -4.52521 -3.82987 -3.2826 
504 1 -3.82819 -3.45354 -3.94782 
1231 2 -2.22836 -3.72378 -4.55528 
1602 2 -3.1707 -4.02664 -4.36557 
1548 2 -2.62099 -4.29892 -3.70361 
1477 2 -1.38124 -3.57426 -3.98647 
1079 2 -1.87482 -4.15558 -3.34248 
1848 2 0.332814 -3.01835 -4.04525 
413 1 0.884017 -3.20467 -5.53489 
467 1 -0.420834 -4.46977 -4.07154 
782 1 0.540095 -4.14036 -3.85738 
902 1 -0.538777 -4.87567 -3.26886 
122 1 1.46925 -3.55067 -4.4143 
938 1 1.27634 -3.92461 -3.75177 
1001 1 2.2634 -3.27287 -4.45335 
1592 2 3.26213 -4.03147 -4.26867 
1528 2 2.54964 -4.46955 -3.96085 
1737 2 3.87757 -3.5858 -4.8616 
131 1 4.45876 -4.77677 -4.71362 
1198 2 3.4338 -4.25719 -3.39907 
1836 2 4.16873 -3.92946 -3.99897 
339 1 5.59923 -4.28647 -4.44001 
1902 2 5.20001 -3.4682 -3.94933 
2010 2 5.90064 -3.30168 -3.49272 
1465 2 -5.69599 -2.78044 -4.30802 
1657 2 -5.18182 -2.86295 -3.63834 
1664 2 -4.89223 -2.47566 -4.29101 
1243 2 -3.6963 -2.00523 -4.00628 
1924 2 -4.19166 -2.54667 -3.59679 
196 1 -2.76506 -2.73821 -4.49894 
1911 2 -3.41344 -2.49265 -3.10149 
524 1 -2.97003 -3.26549 -3.66334 
599 1 -2.1996 -2.82873 -3.71162 
657 1 -1.38985 -2.65451 -3.53884 
1763 2 -0.480044 -2.71696 -5.13616 
1581 2 -0.490877 -3.38423 -4.22792 
1645 2 0.962553 -2.632 -4.37251 
421 1 -0.14444 -2.18158 -3.66314 
1401 2 1.26125 -2.19196 -5.01039 
1982 2 1.80759 -2.37026 -4.19011 
403 1 2.5558 -2.86965 -5.01672 
1083 2 2.47017 -1.81651 -4.7009 
639 1 2.99945 -3.08885 -4.01736 
1738 2 2.64765 -2.15859 -3.69334 
277 1 3.53565 -2.61554 -4.66968 
602 1 4.37987 -2.53226 -4.12506 
914 1 3.71717 -2.89659 -3.51475 
140 1 5.11908 -2.451 -3.51641 
562 1 5.39882 -2.00617 -4.24473 
205 1 -4.65172 -1.30714 -4.37194 
66 1 -4.95057 -1.5615 -3.61044 
2001 2 -5.53584 -0.765013 -3.35978 
161 1 -4.11543 -1.21896 -3.68329 
717 1 -3.46453 -0.904965 -3.98032 
1097 2 -2.92583 -1.81939 -4.28551 
1908 2 -2.84728 -2.05405 -3.51845 
419 1 -2.87917 -1.03302 -3.34305 
1478 2 -2.0589 -1.4957 -4.19692 
1537 2 -1.83147 -1.76537 -3.29868 
1296 2 -1.18764 -1.29971 -3.73041 
1006 1 -0.909207 -2.26344 -4.20768 
674 1 0.0588646 -1.76759 -4.42708 
1573 2 -1.12133 -0.892357 -4.44997 
1870 2 -0.224542 -1.00971 -3.70995 
1644 2 0.455907 -0.484479 -4.00498 
768 1 0.841738 -1.28744 -4.63764 
427 1 0.595207 -1.83675 -3.62568 
866 1 1.78327 -1.02256 -4.50022 
581 1 1.4814 -1.42059 -3.73272 
1533 2 3.33034 -1.65965 -4.24651 
640 1 2.29508 -1.21594 -3.5465 
1363 2 3.82657 -1.68997 -3.65548 
2048 2 4.53064 -1.25975 -4.09366 
1110 2 5.34761 -1.26897 -3.43385 
1615 2 -5.43436 -0.228205 -4.48264 
1634 2 -4.84926 -0.396855 -3.87208 
1830 2 -4.38911 0.167102 -4.53991 
1111 2 -3.90754 -0.0910685 -3.74513 
1184 2 -3.59016 0.448007 -4.35305 
214 1 -2.55186 -0.586795 -3.92798 
701 1 -2.93632 -0.431784 -4.70103 
1643 2 -2.92238 0.405022 -3.72074 
749 1 -1.898 -0.140482 -4.39376 
615 1 -1.25103 -0.16011 -3.73698 
408 1 -0.74408 0.104429 -4.35692 
1572 2 0.555847 -0.194481 -4.79901 
80 1 -0.0927155 0.323382 -3.6782 
1223 2 1.51067 -0.0913341 -4.22107 
1673 2 1.19232 -0.417422 -3.45215 
1021 1 0.406794 0.74672 -4.25873 
1777 2 2.40511 -0.0836514 -3.61843 
1412 2 3.18772 0.396623 -3.51246 
299 1 3.06895 -0.827076 -3.71987 
715 1 4.0023 -0.492152 -3.8038 
2008 2 3.62132 0.257886 -2.52792 
32 1 5.6735 0.572585 -4.17207 
1163 2 5.92736 -0.744899 -4.1649 
872 1 4.61845 0.139131 -4.25298 
109 1 5.3479 0.104589 -3.52227 
818 1 -5.29962 0.658639 -3.62747 
278 1 -4.75817 1.00509 -4.1495 
1728 2 -5.09925 1.85767 -3.65418 
338 1 -4.22085 1.53706 -4.6961 
230 1 -3.67225 1.34596 -3.9637 
900 1 -4.30594 0.948716 -3.50609 
689 1 -3.04244 1.70943 -4.4739 
903 1 -2.4779 1.75644 -3.89195 
1550 2 -2.10197 0.847743 -4.09708 
1050 2 -1.15244 1.01453 -4.02901 
1436 2 -1.6053 0.638064 -3.3236 
1149 2 -0.504991 1.13773 -3.30464 
1364 2 -0.504513 1.47177 -4.32554 
1683 2 0.0428149 1.65279 -3.64086 
594 1 -0.185303 0.615361 -4.87576 
50 1 1.50343 0.894284 -4.03923 
90 1 0.919479 0.657829 -3.54451 
1893 2 0.676669 1.53579 -3.11515 
894 1 2.71322 1.60958 -4.08629 
171 1 2.21798 1.00106 -3.49746 
874 1 1.74245 0.553993 -2.98807 
1910 2 3.03644 1.00335 -5.06923 
1172 2 3.91769 0.855666 -4.12707 
1861 2 4.60911 1.04291 -3.66942 
1132 2 5.28125 1.59489 -4.01355 
1654 2 5.0655 1.02983 -2.97214 
1810 2 -5.77871 1.92909 -4.31625 
7 1 -5.44255 2.81751 -3.37007 
1482 2 -4.52942 2.3148 -3.98198 
1512 2 -3.64311 2.23317 -3.43689 
1485 2 -3.59129 2.64174 -4.11641 
369 1 -4.37629 3.07293 -3.24776 
1794 2 -2.21007 3.16554 -3.94164 
1015 1 -2.13185 2.28804 -4.49821 
310 1 -1.34217 2.68597 -4.74568 
1607 2 -1.80316 3.00791 -3.32898 
686 1 -1.50523 2.01493 -3.73432 
208 1 -0.966735 2.49014 -4.06178 
843 1 0.297155 2.98825 -4.00222 
301 1 -0.269213 2.5295 -3.4394 
1187 2 1.14276 1.74387 -3.71242 
240 1 1.01189 2.78604 -3.45165 
1340 2 1.88781 1.87487 -3.03213 
394 1 2.00868 3.31256 -3.34695 
2039 2 2.84404 2.7379 -3.96615 
1999 2 1.65951 2.41422 -4.18122 
1214 2 2.2689 2.32845 -3.50671 
731 1 3.19454 1.45587 -3.3764 
1011 1 3.23238 1.97863 -4.56732 
621 1 3.84649 1.80709 -3.76759 
1522 2 3.65755 2.8866 -3.69678 
631 1 5.63831 2.487 -3.61362 
726 1 4.56098 2.40738 -4.03899 
702 1 4.90509 2.23194 -3.34417 
188 1 -5.64018 3.21575 -4.37578 
1048 2 -4.91503 4.71302 -4.14669 
1278 2 -5.95119 4.02416 -3.82781 
69 1 -4.88444 3.33847 -3.86494 
446 1 -3.68097 3.68298 -3.92913 
755 1 -3.16487 4.23917 -4.55723 
632 1 -2.66398 4.66268 -5.05912 
250 1 -2.80205 4.07562 -3.6304 
577 1 -2.21116 4.48099 -4.18391 
1926 2 -1.15637 3.52272 -3.90337 
1161 2 -0.696374 3.84626 -4.55073 
1354 2 0.449861 4.37093 -4.25722 
1372 2 -0.156414 3.85047 -3.71429 
885 1 0.828788 3.43648 -4.55186 
1668 2 1.21564 4.30965 -3.55478 
478 1 1.22933 3.41304 -3.84319 
34 1 2.6045 3.82654 -4.12584 
653 1 3.35487 4.11878 -4.22157 
835 1 2.85371 3.65775 -3.37256 
1562 2 4.32147 3.32436 -4.02574 
1977 2 4.63854 3.25489 -3.12962 
775 1 4.16235 4.59561 -4.34298 
262 1 3.7122 3.9535 -3.405 
1349 2 5.68101 4.21691 -4.6293 
1439 2 5.03962 3.62544 -3.80097 
412 1 -5.08179 5.816 -4.40132 
662 1 -5.42934 5.22915 -3.54999 
342 1 -4.72613 5.61834 -3.30655 
1353 2 -3.76371 5.01394 -4.06152 
1335 2 -3.30796 4.94499 -3.21088 
255 1 -4.00479 5.8259 -3.41447 
1038 2 -2.74219 5.3546 -3.71364 
340 1 -0.830888 4.85411 -4.0589 
1757 2 -2.04601 5.16013 -3.05148 
1329 2 -2.01118 5.71902 -4.092 
1236 2 -1.26506 5.71502 -3.50102 
87 1 -0.343282 5.26905 -4.70281 
612 1 0.116559 5.13102 -3.77095 
1033 2 1.73131 4.77758 -4.20244 
237 1 1.24533 5.77002 -3.82292 
82 1 1.98889 5.55766 -3.06315 
1042 2 2.42493 4.74231 -3.42382 
1593 2 2.61224 5.03124 -4.23217 
1499 2 3.20462 4.95633 -3.62051 
1764 2 3.275 5.55891 -4.45696 
1272 2 5.04223 5.6924 -3.48464 
1425 2 4.55299 -5.85067 -4.1228 
1714 2 3.95648 5.52376 -3.76266 
946 1 4.85828 5.12222 -4.44735 
825 1 5.94128 5.32164 -4.1568 
443 1 5.37759 4.80541 -3.54538 
2016 2 -4.32726 -5.13462 -3.12424 
1534 2 -4.65767 -5.65466 -2.30614 
864 1 -5.75159 -4.83806 -2.36708 
1489 2 -5.44334 5.71774 -2.06082 
1312 2 -3.66373 -5.58689 -1.57771 
1394 2 -3.74959 -5.20845 -2.33402 
1197 2 -2.68819 -4.54192 -2.71657 
1285 2 -2.98778 -5.0662 -2.12005 
260 1 -1.8827 -5.3745 -3.24714 
1807 2 -1.97231 -4.33364 -2.45616 
934 1 -1.84603 -5.75893 -2.22715 
459 1 -1.26382 -5.20239 -2.84101 
326 1 -1.1996 -4.84245 -3.86225 
1818 2 0.507384 -5.6828 -3.04809 
147 1 0.00979069 -4.93631 -2.53963 
1928 2 1.38689 -5.57985 -2.52284 
249 1 0.872326 -4.65779 -2.24636 
1984 2 2.19182 -5.34909 -2.29756 
1319 2 1.65543 -5.18513 -3.26264 
2019 2 2.92866 -5.17495 -2.10028 
41 1 2.78597 5.68471 -2.70214 
461 1 3.58347 -5.79855 -2.67596 
847 1 3.74942 -5.37314 -3.30377 
1765 2 3.69142 -4.67999 -2.39386 
586 1 4.34649 -5.5369 -2.50464 
153 1 4.57208 -5.27187 -3.2751 
542 1 5.02992 -5.19789 -2.41591 
284 1 5.41016 -4.94806 -3.14558 
878 1 -5.39029 -4.43964 -3.06503 
280 1 5.87489 -4.37195 -3.62575 
1201 2 -5.34524 -3.65168 -1.91482 
411 1 -3.89345 -3.95737 -2.27311 
798 1 -4.83045 -4.30356 -2.42141 
246 1 -3.50412 -3.66104 -3.07379 
753 1 -2.80811 -3.64242 -2.36828 
1402 2 -1.14084 -4.06933 -2.9232 
1452 2 -0.53611 -3.63173 -3.3335 
1280 2 -0.366908 -3.94487 -2.3594 
1457 2 0.420152 -3.24714 -2.90701 
107 1 0.314669 -4.40457 -3.06591 
661 1 1.35635 -4.18831 -2.89176 
321 1 3.05724 -3.35422 -3.06007 
20 1 2.12214 -3.57511 -3.48075 
550 1 2.16395 -4.0512 -2.64882 
1563 2 2.66412 -4.73564 -3.12672 
1844 2 4.27696 -4.14594 -3.07533 
137 1 3.90266 -3.31496 -2.69273 
385 1 3.17395 -3.82901 -2.20414 
1240 2 5.72945 -3.82845 -2.53834 
1655 2 5.15264 -3.91995 -3.21107 
1817 2 -5.46068 -3.36247 -2.79369 
1521 2 4.92665 -4.1847 -2.36024 
968 1 -5.7523 -1.91164 -3.38484 
592 1 -5.4217 -2.16992 -2.70457 
734 1 -5.65568 -2.61473 -2.07154 
1871 2 -4.72531 -2.88683 -2.84783 
1545 2 -4.60884 -3.22813 -2.03093 
2007 2 -3.79601 -2.84001 -2.46167 
313 1 -2.3882 -3.19998 -2.9343 
1867 2 -2.50446 -2.28656 -2.6144 
1052 2 -3.05265 -2.69061 -2.08927 
388 1 -1.46624 -3.01978 -2.75165 
597 1 -0.716832 -2.63497 -3.09863 
11 1 -0.514468 -2.72813 -2.26252 
287 1 0.259023 -2.15952 -2.92289 
1580 2 1.46803 -3.12621 -2.63722 
1991 2 0.99074 -2.95434 -3.44272 
1263 2 1.80137 -2.49117 -3.30516 
998 1 1.1726 -2.14934 -2.27267 
1066 2 2.45305 -2.5008 -2.68282 
1326 2 3.27949 -2.18478 -3.07888 
928 1 4.16642 -3.53729 -1.76 
1123 2 3.31059 -2.51836 -2.1617 
1973 2 4.1878 -2.13098 -2.71277 
754 1 4.62175 -2.91832 -3.10852 
471 1 5.62391 -2.66417 -2.65241 
296 1 4.97154 -3.10791 -2.30389 
636 1 -4.46753 -1.67686 -2.79951 
1826 2 -5.02158 -0.821533 -2.53923 
1946 2 -5.50034 -1.31719 -1.93594 
1792 2 -4.43052 -0.925769 -1.87259 
291 1 -3.89536 -1.81024 -2.19014 
767 1 -3.62046 -1.45178 -3.08505 
704 1 -2.26656 -1.13995 -2.70027 
234 1 -1.83504 -0.558551 -3.20174 
37 1 -1.6344 -1.00417 -2.00546 
1781 2 -1.47134 -1.92081 -2.51025 
1635 2 -0.799355 -1.41093 -2.9804 
1517 2 0.0116784 -1.4039 -2.56378 
1456 2 0.471695 -0.866114 -3.1149 
1832 2 0.966136 -0.903452 -2.37634 
705 1 1.20578 -1.70778 -2.96487 
377 1 1.99922 -1.93754 -1.83506 
106 1 2.0612 -1.50862 -2.65035 
700 1 2.98616 -1.24245 -2.76381 
1030 2 4.575 -1.54353 -3.25906 
125 1 3.71973 -1.38191 -2.31788 
1350 2 5.13814 -1.69637 -2.49677 
1641 2 5.9157 -1.25521 -2.66117 
692 1 -4.60344 0.401011 -2.95677 
654 1 -5.26305 0.208632 -2.37118 
1754 2 -4.34482 -0.473802 -2.96869 
1876 2 -3.2703 -0.139759 -3.05627 
824 1 -4.14989 0.40396 -2.22523 
2035 2 -3.7502 -0.51963 -2.37933 
1589 2 -3.18851 -0.525215 -1.80311 
1206 2 -2.72738 -0.118216 -2.46946 
1834 2 -2.28367 0.394574 -3.01238 
898 1 -1.11198 -0.510451 -2.5838 
1761 2 -1.67819 0.28265 -2.29929 
625 1 -0.0896376 -0.226485 -2.39177 
499 1 -0.597631 -0.169527 -3.12294 
630 1 -0.575656 -0.669861 -1.7844 
776 1 0.477173 0.204935 -2.97957 
447 1 0.629545 -0.116262 -1.76034 
1568 2 2.42702 -0.574931 -1.98806 
1502 2 1.7939 -0.499098 -2.82005 
1696 2 2.74826 -0.163586 -2.71828 
1314 2 3.24326 -0.383861 -1.82303 
867 1 4.37675 -0.758826 -2.42979 
846 1 3.6996 -0.69715 -2.98744 
1320 2 4.60498 0.415252 -2.4389 
297 1 -5.77333 0.0970711 -2.94702 
334 1 4.73071 -0.350417 -3.21445 
241 1 5.30096 -0.382945 -2.50749 
1858 2 5.28391 0.654462 -1.90261 
1877 2 -5.93206 1.4906 -3.33548 
1986 2 -5.28338 1.3102 -2.75106 
1720 2 -4.42073 1.78693 -3.12591 
1724 2 -4.58751 1.27161 -1.97714 
1508 2 -5.65591 1.012 -1.98529 
1282 2 -4.1347 1.77581 -2.36589 
613 1 -3.61442 0.851611 -2.89642 
94 1 -3.15838 0.78984 -2.08368 
164 1 -2.98368 1.42797 -3.28979 
259 1 -2.46929 1.29698 -2.61763 
1104 2 -0.935837 0.737288 -2.64146 
489 1 -1.96925 1.60914 -3.06955 
189 1 -1.42805 1.53062 -2.42733 
1310 2 0.120965 1.14137 -2.6221 
2022 2 -0.438843 0.62737 -2.02939 
585 1 -0.307746 2.0729 -2.38622 
963 1 1.19955 0.170432 -2.37879 
1386 2 1.16501 1.45239 -2.47515 
1838 2 1.86117 1.57871 -1.93834 
464 1 2.25905 0.462753 -2.02082 
232 1 2.5372 0.954821 -2.63877 
1953 2 3.91547 0.58986 -3.13998 
110 1 3.64102 1.30351 -2.45509 
920 1 4.26464 1.49757 -1.97567 
1803 2 5.67709 1.14287 -2.56868 
194 1 4.99985 2.01137 -2.39298 
811 1 -5.65595 2.13101 -2.27845 
926 1 -4.86336 2.49926 -2.60524 
276 1 -3.67147 3.06815 -2.60313 
516 1 -4.19745 2.73491 -2.13476 
323 1 -3.10775 3.0388 -1.68806 
1938 2 -3.34186 2.13635 -2.70938 
1415 2 -2.7356 2.61851 -3.42965 
1476 2 -2.337 2.57273 -2.66839 
1689 2 -1.38505 2.80264 -2.63361 
719 1 -0.937686 2.03979 -2.96117 
134 1 0.472091 2.62478 -2.89545 
1616 2 -0.0985692 3.42395 -2.58491 
937 1 1.52853 2.84571 -2.75344 
945 1 0.989893 2.44316 -2.10989 
896 1 1.92854 2.82592 -2.0163 
1642 2 2.41314 1.99853 -2.46324 
1461 2 3.33623 2.29265 -2.24655 
1994 2 3.05533 2.40262 -3.16517 
1105 2 3.87766 2.68893 -2.91108 
381 1 5.63793 2.35794 -2.80997 
944 1 4.23673 1.81635 -2.89696 
1072 2 -5.88273 3.11661 -1.98082 
1825 2 5.1063 3.0577 -2.21573 
1575 2 -5.14688 4.23924 -3.46191 
1636 2 -5.64492 3.81867 -2.94623 
1527 2 -5.15956 3.60115 -2.28304 
579 1 -5.7649 4.5263 -2.0839 
1413 2 -4.12329 4.56056 -3.39149 
1419 2 -4.52153 4.03865 -2.78724 
1971 2 -3.64365 3.96464 -1.59313 
989 1 -3.22688 3.44733 -3.08923 
772 1 -2.20132 3.95625 -3.01767 
1601 2 -2.9159 4.31954 -1.72805 
26 1 -2.67074 3.48741 -2.39089 
17 1 -1.60874 4.48444 -3.5408 
733 1 -2.06673 3.31411 -1.78862 
1304 2 -0.762279 3.41382 -3.05108 
568 1 -1.54268 3.83353 -2.36106 
1183 2 0.515036 3.85368 -3.19519 
361 1 -1.01683 4.37312 -2.87137 
1071 2 1.72329 4.17581 -2.8031 
1981 2 1.16379 3.7822 -2.43688 
736 1 0.663721 4.67429 -2.06758 
448 1 2.56277 3.22824 -2.63459 
1854 2 2.86024 4.62438 -2.78854 
1428 2 2.37593 4.16415 -2.24191 
552 1 3.46008 3.62074 -2.58466 
432 1 4.2073 4.02381 -2.56668 
370 1 4.37436 4.49131 -3.61551 
1333 2 5.48594 3.43716 -2.87764 
166 1 5.05895 4.37807 -2.79482 
993 1 -4.94178 4.98757 -2.70149 
952 1 -4.97507 4.67145 -1.8741 
2000 2 5.48368 5.52407 -2.07986 
1275 2 -3.66368 4.28396 -2.55562 
589 1 -4.21189 5.28295 -2.54837 
1008 1 -3.27823 -5.70049 -3.18578 
119 1 -3.52775 5.71981 -2.51305 
295 1 -2.5745 -5.77626 -2.70091 
1957 2 -2.80063 4.73573 -2.43733 
1339 2 -1.87094 4.74408 -1.97671 
1814 2 -0.940054 5.08713 -1.79119 
1543 2 -1.34221 5.25473 -2.68812 
836 1 -0.469861 4.75468 -3.25708 
1571 2 -0.364978 -5.9269 -3.2415 
564 1 0.17847 4.7695 -2.6804 
1503 2 -0.508706 5.61092 -2.50138 
123 1 0.844269 5.24681 -3.15859 
1742 2 0.37889 5.89558 -2.11705 
652 1 1.31988 5.12507 -2.46701 
490 1 2.29274 5.20842 -2.12885 
1126 2 3.53689 4.92745 -2.82463 
1318 2 4.30857 5.30721 -3.04886 
1090 2 4.14749 4.94213 -2.17552 
1178 2 4.78674 4.99263 -1.70797 
918 1 -5.87089 4.91104 -2.80545 
1604 2 5.74777 5.83267 -2.87069 
1411 2 4.90723 5.51106 -2.58205 
666 1 -4.23112 -4.57976 -1.70339 
724 1 -5.10658 -4.84702 -1.89157 
65 1 -5.51752 -5.25954 -1.2718 
1404 2 -2.91632 -5.38167 -1.1616 
366 1 -4.67967 -5.11682 -1.18776 
890 1 -4.09502 -5.06023 -0.410847 
1783 2 -2.18647 -4.86018 -1.79701 
1454 2 -2.2187 -5.24745 -0.841464 
1106 2 -1.6442 -4.84829 -1.22853 
328 1 0.422576 -5.07249 -1.72053 
678 1 -0.727497 -5.26618 -2.1055 
245 1 0.508089 -5.33463 -0.88324 
1051 2 -0.290184 -4.56258 -0.781148 
85 1 -0.456046 -5.50396 -1.29062 
1189 2 1.94068 5.76835 -0.799826 
100 1 1.39227 -4.88938 -1.3121 
1199 2 1.52545 5.92271 -1.683 
1828 2 2.36004 -5.63702 -1.33287 
2004 2 3.39083 -5.02723 -1.38153 
1749 2 3.09637 -5.50696 -0.897339 
1013 1 4.8316 -5.68504 -1.64367 
182 1 5.41121 -5.7502 -0.928736 
452 1 5.61445 -5.33724 -1.79384 
2017 2 4.22478 -4.91652 -1.18702 
1387 2 5.72405 -4.17218 -1.70521 
1217 2 -5.36082 -3.98763 -1.15868 
1948 2 -4.52251 -3.50333 -1.25762 
2002 2 5.92845 -4.45236 -0.848972 
21 1 -3.76665 -4.56011 -0.992577 
1442 2 -3.83075 -3.60579 -0.701543 
1289 2 -3.07333 -3.19199 -0.886644 
71 1 -2.46744 -3.88265 -1.4821 
844 1 -3.29614 -4.21546 -1.6528 
816 1 -2.86625 -4.38709 -0.671547 
677 1 -1.94838 -3.37511 -2.05008 
1047 2 -1.21035 -4.32873 -2.13112 
986 1 -1.79289 -3.65619 -1.13385 
1878 2 -0.900891 -4.5297 -1.3824 
1613 2 -0.150822 -4.17148 -1.56393 
1896 2 0.479971 -3.6218 -2.1494 
1246 2 0.557983 -4.18971 -0.802526 
1894 2 1.37146 -3.45273 -1.73113 
1753 2 0.911568 -3.9443 -1.40216 
569 1 2.10998 -4.75365 -0.923464 
286 1 2.5448 -4.27887 -1.72616 
1019 1 1.77342 -4.43347 -1.89586 
1985 2 2.20406 -3.46453 -1.25108 
1530 2 4.27231 -4.50719 -1.93267 
522 1 3.53037 -3.95174 -1.41807 
216 1 3.06926 -4.37226 -0.62688 
605 1 4.72681 -3.74719 -0.954502 
1767 2 5.07463 -4.5075 -1.44695 
275 1 -5.19227 -2.58141 -1.22959 
219 1 -5.45922 -3.03846 -0.559582 
1400 2 -3.7186 -3.13088 -1.49111 
848 1 -3.39871 -1.79748 -1.64097 
285 1 -4.65523 -2.19806 -1.98611 
58 1 -4.10694 -2.18705 -1.31875 
532 1 -4.54494 -2.70425 -0.643573 
1505 2 -2.60213 -2.70624 -1.31927 
1682 2 -1.93761 -2.34952 -1.88024 
324 1 -1.00365 -3.16045 -1.89861 
1391 2 -1.81582 -2.64645 -0.967194 
1069 2 -1.27102 -2.17716 -1.43303 
573 1 -0.115499 -3.10134 -1.43886 
1808 2 -0.645571 -2.34564 -0.723105 
566 1 0.320887 -2.58548 -2.03802 
347 1 0.687468 -2.85543 -1.30818 
211 1 1.31898 -2.35775 -1.42302 
1923 2 2.07546 -3.07257 -2.11568 
1947 2 2.77836 -2.96996 -1.70398 
199 1 2.56431 -2.122 -1.22246 
1708 2 3.94959 -2.57135 -1.75482 
1787 2 4.5572 -2.54748 -0.91493 
1492 2 3.43102 -2.95207 -1.14124 
311 1 5.0791 -3.26817 -1.47466 
314 1 5.62347 -3.40564 -0.755257 
213 1 5.88489 -3.08046 -1.47643 
1698 2 4.69513 -2.22152 -1.81938 
1978 2 5.30713 -2.12659 -1.27018 
1167 2 -5.77308 -1.82822 -1.16938 
1299 2 -4.90559 -1.43033 -1.29584 
1972 2 -3.83206 -0.825548 -1.27271 
1025 2 -3.44793 -0.983204 -0.395239 
1940 2 -4.30817 -1.39133 -0.648428 
117 1 -3.09315 -1.42925 -2.38068 
917 1 -2.81354 -1.79264 -0.937928 
548 1 -2.37839 -1.43163 -1.56704 
59 1 -1.43433 -1.10157 -1.22527 
948 1 -2.10472 -1.68891 -0.554366 
1086 2 -0.665888 -1.69813 -2.15157 
1819 2 -0.161285 -1.90578 -1.29322 
468 1 -0.583042 -1.0205 -1.00719 
1916 2 0.33677 -1.39014 -1.92237 
2027 2 1.53805 -0.865236 -1.74206 
2046 2 0.989019 -1.32612 -1.3223 
1360 2 1.87207 -1.24044 -1.01302 
691 1 2.97399 -1.69522 -1.89709 
217 1 3.27808 -2.05391 -0.664998 
626 1 4.34673 -1.23914 -1.75758 
962 1 3.60353 -1.69706 -1.26968 
198 1 4.66755 -1.35488 -1.01143 
1279 2 5.6435 -1.59368 -1.87869 
279 1 5.06333 -0.710762 -1.69097 
737 1 5.64337 -0.831107 -0.981171 
958 1 -5.43567 -0.445919 -1.33744 
518 1 5.8783 -0.251424 -1.87344 
876 1 -4.67398 -0.0131931 -1.56555 
1468 2 -5.30611 0.58165 -0.604173 
912 1 -3.6812 0.473581 -1.48151 
472 1 -4.15224 0.0988604 -0.818764 
1432 2 -2.89914 -0.606403 -0.909324 
921 1 -3.04397 0.35252 -0.727127 
1098 2 -2.07075 -0.619391 -0.557674 
2043 2 -2.19241 -0.214436 -1.64341 
1067 2 -1.66697 0.00752489 -0.739785 
1735 2 -1.24046 0.159897 -1.55516 
799 1 0.179974 -0.598366 -1.24958 
1213 2 -0.553152 0.172306 -0.835274 
160 1 0.92288 -0.2996 -0.866791 
886 1 1.51156 0.00389487 -1.4824 
837 1 1.87569 -0.249306 -0.69203 
1897 2 2.6769 -0.956802 -1.25763 
243 1 2.54418 0.195745 -1.09288 
84 1 3.31179 0.419676 -0.981805 
1952 2 4.28942 0.0830188 -1.79051 
1680 2 3.64152 -0.543798 -1.22953 
1220 2 -5.95591 0.465409 -1.26135 
2030 2 4.91622 0.135967 -1.34574 
1059 2 -5.10026 1.00261 -1.27756 
298 1 -5.43005 1.84158 -1.183 
2038 2 -4.01478 1.39325 -1.33434 
1520 2 -3.35663 1.85203 -1.95583 
357 1 -2.46908 0.778421 -1.42801 
1170 2 -2.93158 1.63405 -1.11547 
397 1 -2.02189 1.28193 -1.86522 
919 1 -1.45676 1.12447 -1.21632 
303 1 -2.13049 0.73886 -0.505828 
115 1 -0.856309 1.56793 -1.79949 
660 1 -0.104479 1.60539 -1.06795 
1860 2 0.0438909 0.659393 -1.39174 
1297 2 0.677256 0.996088 -1.84321 
1944 2 1.58582 1.03606 -1.3274 
1215 2 0.929016 0.828054 -0.880519 
1967 2 2.96543 1.81031 -1.61451 
1017 1 3.04993 0.849848 -1.85361 
1158 2 2.32876 1.34109 -1.06372 
1368 2 3.8389 1.97995 -1.17561 
104 1 3.81728 0.820261 -1.32077 
16 1 5.72286 1.98859 -1.66363 
351 1 4.96277 1.49545 -1.52751 
761 1 -4.79471 2.36314 -1.68804 
1330 2 -5.19237 3.3189 -1.33212 
966 1 -4.35717 2.25544 -0.806034 
322 1 -3.69529 2.6067 -1.34532 
1839 2 -2.5383 2.1589 -1.88368 
460 1 -3.21392 2.61564 -0.587429 
520 1 -2.52032 3.10883 -0.921511 
1959 2 -1.7085 2.37284 -1.78462 
2021 2 -1.07613 2.46634 -1.42028 
1092 2 -2.09123 2.04543 -1.0005 
1756 2 -0.59484 2.9901 -2.08761 
910 1 0.408227 1.94739 -1.63244 
1247 2 0.0859839 2.84107 -1.30605 
747 1 1.45311 2.31786 -1.38357 
1107 2 1.04739 3.31884 -1.10431 
823 1 0.911992 1.90955 -0.858272 
143 1 2.46823 2.53384 -1.11992 
1866 2 3.24167 1.53187 -0.611541 
1026 2 4.99267 2.65863 -1.39443 
1686 2 4.24717 2.59405 -2.03146 
906 1 3.50715 2.94759 -1.07908 
1662 2 5.74225 2.84643 -0.988886 
974 1 -4.69872 4.41175 -0.996497 
679 1 -3.96184 4.73975 -0.970115 
1287 2 -4.38579 3.61353 -1.71717 
1325 2 -3.12047 3.97555 -0.866611 
1669 2 -4.28419 3.35232 -1.024 
1853 2 -4.50671 3.21521 -0.289918 
1348 2 -2.27988 4.21061 -1.31171 
111 1 -1.43605 3.40982 -1.10397 
86 1 -1.00473 3.91012 -1.61883 
418 1 -0.471191 3.61716 -0.956147 
1265 2 -1.89461 4.24782 -0.560282 
1679 2 0.529648 3.49609 -1.93129 
165 1 -0.498257 4.36645 -2.2136 
905 1 0.0727122 4.20832 -1.35086 
1997 2 1.59482 3.80961 -1.71058 
187 1 0.923024 4.46774 -1.26533 
181 1 2.75187 2.92955 -1.81339 
1968 2 2.03324 3.44394 -0.91039 
1913 2 2.60143 3.83769 -1.4315 
1868 2 3.17298 4.45297 -1.87326 
1405 2 3.21131 4.10107 -0.939426 
1234 2 3.93981 4.53943 -1.43803 
650 1 3.49807 3.36304 -1.90773 
355 1 5.30544 3.94154 -1.82818 
506 1 -5.74398 4.06399 -1.21811 
582 1 4.39456 3.75638 -1.77295 
258 1 5.26914 3.70429 -0.954541 
1918 2 -5.09337 5.5001 -1.32825 
2025 2 -5.3319 5.17211 -0.631192 
1362 2 -4.44735 5.50372 -0.582785 
1122 2 -4.33047 5.89697 -1.44213 
1822 2 -3.66592 6.03332 -0.790237 