ITEM: TIMESTEP
15900
ITEM: NUMBER OF ATOMS
2048
ITEM: BOX BOUNDS pp pp pp
-5.9384514893112605e+00 5.9384514893112605e+00
-5.9384514893112605e+00 5.9384514893112605e+00
-5.9384514893112605e+00 5.9384514893112605e+00
ITEM: ATOMS id type x y z 
1633 2 -4.26689 -4.58258 -4.60123 
473 1 -5.33835 -5.35635 5.74591 
435 1 -5.55124 5.88852 -5.34041 
1227 2 -5.13087 -4.76092 -4.91348 
333 1 -3.12975 -5.05962 -5.51463 
14 1 -4.72144 -5.74451 -5.10848 
346 1 -4.47673 -5.96153 -4.2503 
91 1 -2.45564 -4.79941 -5.13472 
805 1 -3.90027 -5.47044 -5.06383 
1138 2 -3.0227 -5.88574 5.71729 
416 1 -1.93422 -4.61401 -4.44901 
1958 2 -2.22177 -5.67857 -5.73148 
2029 2 -1.43072 -5.2388 5.74992 
1035 2 -0.985039 -5.2432 -5.45538 
1429 2 -0.105772 -4.94573 -5.5352 
1291 2 -0.274434 -5.34164 -4.63017 
350 1 0.616031 5.76019 -4.94981 
1709 2 0.941031 -4.52228 -5.75833 
495 1 0.54465 -5.88245 -5.64349 
1486 2 1.36421 -4.72803 -4.77964 
575 1 2.13126 -5.4261 -5.08383 
648 1 1.44574 -5.34805 -5.8466 
442 1 2.88279 -5.06311 -5.16799 
1704 2 4.04542 -5.67784 -5.58399 
180 1 3.88584 -4.87317 -4.83311 
1612 2 4.5748 -5.91625 -4.67051 
1192 2 4.91459 -5.46579 -5.42079 
1799 2 5.77173 -5.17426 -5.22645 
511 1 -5.8819 -3.69948 -5.24169 
675 1 -5.47436 -3.18278 -5.76791 
251 1 -4.83989 -3.21104 -5.12647 
1103 2 -4.51713 -4.33289 -5.29003 
1046 2 -3.53562 -4.2751 -4.8812 
1711 2 -2.76171 -3.8278 -4.72022 
1231 2 -2.33963 -3.7585 -4.00251 
2009 2 -1.67218 -3.42221 -4.39475 
227 1 -1.22414 -4.35524 -4.84974 
924 1 -1.65718 -4.31232 -5.65425 
819 1 -0.211038 -4.03609 -4.91675 
202 1 -0.154729 -3.54699 -5.9292 
136 1 0.584677 -3.69832 -5.33196 
1790 2 1.76537 -4.27914 -5.28594 
1678 2 2.5879 -3.9474 -5.0169 
1737 2 3.80649 -3.72228 -4.86333 
1705 2 2.66072 -3.63742 -5.86282 
57 1 5.20358 -3.81068 -5.62881 
1232 2 4.58985 -3.07206 -5.44122 
1483 2 3.48512 -3.52899 -5.71215 
496 1 4.51603 -4.48749 -5.38075 
809 1 5.24661 -4.65727 -3.87083 
429 1 5.64658 -3.34444 5.61973 
1937 2 -5.19393 -2.35905 -4.82921 
1475 2 -4.71076 -1.84516 -5.59364 
353 1 -3.84938 -3.01848 -4.96769 
1243 2 -3.80549 -2.05703 -4.15488 
218 1 -3.15129 -2.85763 -4.56809 
664 1 -3.18854 -2.64134 -5.51779 
196 1 -1.92237 -2.54557 -4.13627 
151 1 -2.1455 -2.12471 -5.34856 
1379 2 -1.43797 -2.98064 -5.50287 
35 1 -1.35994 -2.24311 -4.71382 
1370 2 -0.80928 -3.10586 -4.73099 
1255 2 -0.682825 -2.60095 -5.95103 
1763 2 0.0559672 -2.9521 -4.55135 
1909 2 -0.109284 -2.08993 5.76535 
1190 2 1.63033 -1.97215 -5.14622 
1 1 1.42156 -2.97171 -5.70725 
1525 2 -0.205545 -2.74484 -5.2871 
939 1 2.32821 -2.75885 -5.36337 
277 1 3.04117 -3.00256 -4.60975 
694 1 2.74289 -2.3789 5.52319 
1129 2 5.44636 -2.91758 -4.79209 
485 1 3.12627 -2.62348 -5.38091 
904 1 3.92584 -2.27222 -5.27578 
602 1 3.82922 -2.70857 -4.40745 
1070 2 3.989 -3.0169 5.76414 
1465 2 -5.77342 -2.77633 -4.23317 
1995 2 5.23594 -2.48169 -5.73816 
1588 2 -4.41353 -2.19626 -4.74359 
771 1 -4.69544 -0.858136 -5.34276 
740 1 -5.45579 -1.15177 -5.05007 
205 1 -4.7458 -1.3774 -4.2446 
1745 2 -3.65234 -1.69195 -5.21963 
1733 2 -3.05363 -1.3394 -5.6793 
1097 2 -3.00437 -1.66955 -4.50872 
1271 2 -2.50886 -1.31278 -5.08895 
1809 2 -1.96041 -0.918696 -5.75301 
1345 2 -1.31009 -0.840788 -4.96948 
595 1 -1.67425 -1.90622 -5.91692 
830 1 -0.667803 -1.67948 -5.26424 
578 1 0.77651 -1.08624 -5.55677 
367 1 -0.0358846 -1.18885 5.75665 
1820 2 0.488942 -2.31058 -5.67169 
42 1 1.55795 -0.612834 -5.62067 
1964 2 1.98784 -1.51826 -5.95672 
1590 2 2.93065 -1.28456 -5.69029 
1259 2 3.41633 -1.46956 -4.91334 
1775 2 3.72072 -0.758513 -5.95841 
1332 2 4.69317 -0.428351 -5.74544 
308 1 5.42443 -1.5076 -5.13659 
999 1 4.69134 -2.20152 -4.52804 
1615 2 -5.86085 -0.436554 -4.43224 
1797 2 -5.43504 0.432531 5.73465 
833 1 -3.99468 -0.809404 -4.70243 
543 1 -4.16104 -0.398815 5.91688 
1498 2 -5.2074 0.0862906 -5.05776 
1346 2 -3.90183 0.386492 -5.02327 
505 1 -3.4094 -0.387963 -5.3681 
386 1 -3.02424 0.136717 5.84368 
451 1 -2.54907 -0.166106 -5.35497 
827 1 -1.8508 0.37592 -5.62406 
1975 2 -0.411284 -0.673908 -5.10461 
789 1 -1.02686 0.351782 -4.97873 
1963 2 0.426386 -0.132538 -5.33001 
517 1 -0.851453 0.793283 -5.81435 
1804 2 -0.30767 -0.16802 -5.78539 
1500 2 0.591967 0.42155 5.79168 
1223 2 1.17349 -0.273807 -4.19292 
1852 2 1.2046 0.176125 -5.0432 
31 1 2.38713 -0.490672 -5.3442 
1180 2 2.06616 0.296409 -4.59388 
138 1 2.58688 -0.0898978 5.71488 
560 1 3.38119 0.191071 -5.6116 
1224 2 5.40546 0.0712859 5.75764 
758 1 4.04136 0.208478 -4.94466 
469 1 5.08619 0.672704 -5.28437 
1494 2 5.73977 -0.138156 -5.33338 
1623 2 4.95092 -0.610358 -4.9621 
302 1 5.79553 1.00458 -5.27224 
656 1 -5.29353 1.03494 -4.77164 
752 1 -4.75395 1.54191 -5.28209 
2028 2 -4.54398 0.618528 -5.59708 
697 1 -4.30958 1.78904 5.80139 
338 1 -4.14494 1.53198 -4.7042 
1962 2 -3.36153 0.906399 -5.52944 
190 1 -3.66866 1.81095 -5.36313 
1256 2 -2.0466 1.31547 -5.0204 
1736 2 -2.71729 0.840535 -4.79407 
1050 2 -1.49327 1.11088 -4.33534 
1298 2 -1.48825 1.70658 -5.7668 
1054 2 -1.14726 1.59968 -5.01207 
212 1 -1.42282 0.902287 5.35878 
842 1 0.398244 1.20156 -5.24164 
156 1 0.636519 1.69099 5.66767 
551 1 1.03823 1.09234 -4.66506 
380 1 1.21395 1.54446 -5.44302 
2041 2 2.28039 0.721439 -5.35333 
1882 2 3.28357 1.43082 -5.7252 
895 1 2.92583 1.98164 -4.97058 
1470 2 3.91779 1.37786 -5.1086 
1204 2 4.57488 1.80652 -5.43963 
915 1 -5.46341 1.40809 -5.79985 
1068 2 5.59702 1.98322 -5.13494 
1403 2 -4.85979 2.50271 -4.84211 
32 1 5.66906 0.580368 -4.31287 
1377 2 -4.66013 2.82545 -5.6151 
1717 2 -5.26992 2.83443 5.5245 
1716 2 -4.18637 3.38789 5.57735 
1620 2 -3.95561 3.7244 4.69711 
1175 2 -3.84762 2.98093 -5.59223 
820 1 -3.27028 2.24956 -5.8624 
982 1 -2.58739 2.2343 -5.01884 
1625 2 -3.15368 3.05537 -4.93582 
494 1 -2.64072 2.73815 5.72589 
852 1 -1.96114 2.53995 -5.62498 
310 1 -1.58812 2.64578 -4.86444 
1884 2 -0.0966506 2.08246 -5.16566 
561 1 -0.244766 3.08193 -4.86904 
1506 2 0.574077 2.46214 -5.39468 
1769 2 1.32449 2.50455 -4.86777 
1130 2 1.56873 2.87441 -5.77772 
1628 2 2.86631 3.23504 -5.22956 
1979 2 2.46105 3.45725 5.91951 
401 1 2.45208 2.09102 -5.81288 
796 1 3.34989 2.45177 -5.57151 
574 1 4.09182 2.52609 -5.13279 
396 1 4.80649 3.1608 -5.68328 
1497 2 -5.73327 2.43481 -5.56471 
204 1 5.44069 3.25171 -5.26945 
923 1 -5.16891 3.68894 -5.23431 
644 1 -5.13783 3.81516 5.69992 
1640 2 5.64522 4.27903 -5.15569 
891 1 -4.54598 4.50332 5.13101 
45 1 -4.46616 4.25732 -5.89427 
92 1 -3.75671 4.07311 -5.34756 
687 1 -3.11718 4.48188 -5.45548 
1824 2 -0.9848 4.12871 -4.96256 
1869 2 -2.30204 3.57472 -5.08931 
632 1 -2.68182 4.42832 -4.72074 
1336 2 -0.141152 4.45518 -5.19129 
1161 2 -0.379028 3.99494 -4.4358 
1268 2 -1.69761 3.49498 -4.34308 
593 1 -1.02273 3.06226 -5.24747 
1354 2 0.492865 4.29775 -4.22106 
56 1 0.331417 3.51244 -5.30863 
709 1 1.30807 3.78436 -5.36959 
716 1 0.615621 3.97706 5.80744 
884 1 2.11242 4.30834 -5.6442 
256 1 2.81341 4.22871 -4.72743 
1274 2 3.58133 3.36057 -4.74002 
1342 2 3.40174 3.76975 -5.9062 
1618 2 4.05785 3.89003 -5.27907 
1146 2 4.12772 4.32342 5.578 
178 1 5.95615 3.63949 -5.90555 
1779 2 4.7745 4.25007 -5.6388 
412 1 -5.26641 5.65957 -4.53204 
1088 2 -5.28049 4.46863 -4.82955 
1353 2 -4.13589 4.90983 -4.57276 
1413 2 -4.15422 4.29856 -3.31561 
797 1 -3.70824 4.55826 5.78323 
1551 2 -3.36469 5.27536 -4.74668 
1191 2 -4.56549 4.99245 -5.18944 
1365 2 -2.89899 5.71997 -5.37581 
1526 2 -2.40828 5.75478 -4.8035 
221 1 -1.85171 4.91368 -4.6955 
87 1 0.0798168 5.33671 -4.62907 
428 1 -0.962548 5.34976 -4.97618 
340 1 -0.991986 4.88903 -4.29166 
1145 2 0.0864014 4.83421 -5.88041 
528 1 -0.292355 5.75123 -5.30768 
2040 2 0.674011 4.59811 -5.18185 
1033 2 1.39402 4.78645 -4.59568 
1093 2 0.866549 5.05266 5.82397 
1955 2 1.69016 5.17973 -5.30194 
1691 2 2.50225 5.46022 -5.12411 
1846 2 2.2742 5.75667 5.84705 
777 1 2.92422 4.59917 -5.52907 
946 1 4.99095 5.03018 -4.52086 
407 1 4.45685 5.17511 -5.22319 
825 1 5.70756 5.3164 -4.53111 
699 1 5.60107 5.36026 -5.40382 
1969 2 5.92082 4.66808 5.87805 
1849 2 -5.66492 -5.20986 -4.41048 
2016 2 -4.76152 -5.40511 -3.16929 
1261 2 -3.90985 -4.85958 -3.74671 
508 1 -3.58905 -5.77223 -4.16359 
247 1 -3.07748 -5.40795 -4.71403 
274 1 -2.95743 -5.74069 -3.44787 
855 1 -1.15123 -4.79339 -3.97407 
453 1 -2.66772 -5.24512 -4.07181 
1542 2 -1.7267 -5.64252 -5.07743 
1151 2 -1.15586 -5.71282 -4.36136 
1334 2 0.805149 -5.10894 -4.11605 
1260 2 0.600322 -4.88408 -4.99679 
1887 2 2.16013 -4.45622 -4.35725 
1082 2 1.52365 -4.88646 -3.81798 
425 1 2.57254 -5.47337 -4.24466 
955 1 3.29622 -5.21604 -4.35635 
667 1 4.10844 -5.14565 -3.79747 
131 1 4.61942 -4.86381 -4.40417 
153 1 4.67991 -5.06686 -3.15281 
1358 2 5.29037 -5.55784 -4.65509 
1773 2 5.52595 -5.68887 -3.84155 
1272 2 4.9383 5.74075 -3.68011 
339 1 -5.89164 -4.13741 -4.39477 
223 1 5.21934 -4.26814 -4.79146 
373 1 -5.25867 -3.67962 -4.58255 
991 1 -4.91107 -4.02129 -3.47894 
1663 2 -4.79629 -4.99662 -3.98769 
273 1 -4.36751 -3.44877 -4.40002 
1602 2 -3.41365 -4.36917 -4.07926 
483 1 -4.13917 -3.80181 -3.48789 
1548 2 -2.82407 -4.3919 -3.46032 
1477 2 -1.46147 -3.84798 -3.60391 
1581 2 -0.704871 -3.25958 -4.0134 
1848 2 -0.219408 -3.42838 -3.30904 
413 1 0.555227 -3.96736 -4.44506 
467 1 -0.470739 -4.3264 -4.25944 
782 1 0.219848 -4.33462 -3.72315 
547 1 1.39375 -3.33318 -4.87466 
122 1 1.33762 -3.78684 -4.1405 
1001 1 2.23873 -3.57132 -3.77299 
938 1 1.20576 -4.08787 -3.25629 
1592 2 3.15338 -4.25223 -4.28507 
1198 2 3.58706 -4.32765 -3.4269 
403 1 2.12799 -3.18898 -4.64089 
321 1 2.82753 -3.5351 -2.9361 
1836 2 4.08017 -3.95694 -3.99755 
1902 2 4.55264 -3.46375 -4.53621 
1844 2 4.30381 -4.06777 -2.9467 
1240 2 5.46772 -3.949 -2.36808 
1657 2 -5.2819 -3.05946 -3.54511 
1664 2 -4.91353 -2.56209 -4.11076 
1871 2 -4.62695 -3.02942 -2.92599 
1924 2 -4.32976 -2.68435 -3.52455 
1911 2 -3.21454 -2.17189 -3.48648 
524 1 -2.72043 -3.10308 -3.70107 
313 1 -2.3286 -3.1886 -2.90366 
236 1 -2.46524 -2.56744 -4.80541 
1867 2 -2.69671 -2.22089 -2.63864 
599 1 -1.53833 -2.75677 -3.29024 
657 1 -0.931203 -2.31256 -3.82024 
597 1 -0.583785 -2.53269 -2.91601 
1645 2 0.53243 -3.10474 -3.74061 
1006 1 -0.286636 -1.92103 -4.4857 
421 1 -0.120456 -2.09681 -3.64033 
1401 2 1.16514 -2.60345 -4.09729 
1555 2 0.750293 -2.56414 -4.84787 
1083 2 1.98015 -2.29854 -4.34865 
1676 2 2.51059 -1.74663 -4.96689 
1326 2 3.42465 -2.01633 -3.1574 
639 1 3.06291 -3.28625 -3.86348 
471 1 5.22449 -2.28428 -3.38275 
1655 2 4.874 -3.79398 -3.40613 
140 1 4.45765 -2.71834 -3.71483 
2010 2 5.4069 -3.30196 -4.00524 
562 1 5.44317 -1.86658 -4.16751 
968 1 -5.60694 -2.14681 -3.03762 
66 1 -5.34798 -1.70257 -3.63185 
161 1 -4.33219 -1.11265 -3.57632 
717 1 -3.56378 -0.94708 -4.01715 
1908 2 -2.478 -1.88625 -3.82936 
419 1 -2.85793 -0.882889 -3.65796 
1478 2 -1.97625 -1.50157 -4.40906 
1296 2 -1.33653 -1.39821 -3.91262 
8 1 0.228357 -1.49882 -4.96506 
674 1 0.575253 -1.68527 -4.15643 
1573 2 -0.674036 -0.923475 -4.13258 
1870 2 -0.290226 -1.1188 -3.41147 
1644 2 0.518377 -0.691873 -3.70078 
768 1 1.54856 -1.31782 -4.02567 
788 1 1.22607 -1.1305 -4.76982 
866 1 2.12091 -0.814894 -4.50948 
581 1 2.29204 -1.42079 -3.69992 
1363 2 3.59962 -1.68335 -4.00367 
2036 2 4.11844 -0.956424 -5.06931 
2048 2 4.49091 -1.30135 -4.4067 
784 1 -5.78146 -1.57598 -4.53528 
1163 2 5.26718 -0.827768 -4.13701 
1110 2 5.08489 -1.2467 -3.37653 
2001 2 -5.79598 -0.717172 -3.57471 
1634 2 -5.00674 -0.283479 -3.93747 
1830 2 -4.4987 -0.0270698 -4.47757 
1754 2 -4.33383 -0.274475 -3.20456 
1111 2 -3.89924 0.0460334 -3.80092 
1876 2 -3.35086 -0.334196 -2.90935 
214 1 -2.25377 -0.474748 -4.24442 
701 1 -2.94851 -0.492712 -4.73115 
1184 2 -3.25334 0.421329 -4.32828 
1643 2 -2.95521 0.116761 -3.48947 
749 1 -1.75914 0.0242969 -4.75178 
615 1 -1.33001 -0.140564 -3.98154 
1572 2 0.36894 -0.4391 -4.60466 
80 1 -0.00400712 0.254825 -3.5035 
408 1 -0.471256 0.132722 -4.21894 
1777 2 2.13481 -0.135741 -3.80751 
1673 2 1.27045 -0.642488 -3.35946 
1021 1 0.729192 0.664362 -3.82958 
116 1 3.08769 -0.289661 -4.93042 
1412 2 2.85571 0.441934 -4.255 
299 1 3.54097 -0.305452 -4.30991 
700 1 3.48437 -0.769559 -3.60118 
715 1 4.34984 -0.376464 -3.89718 
872 1 4.74838 0.271863 -4.54895 
109 1 5.16125 0.177765 -3.672 
1810 2 -5.42813 1.93668 -4.49863 
818 1 -5.36789 0.716337 -3.76905 
1877 2 -5.7609 1.52613 -3.29999 
278 1 -4.56227 1.0377 -4.25492 
1728 2 -5.23249 1.90749 -3.75694 
230 1 -3.70443 1.34375 -3.97927 
900 1 -4.22462 0.898885 -3.39963 
689 1 -3.24294 1.74647 -4.48421 
903 1 -2.35638 1.54856 -3.73564 
1550 2 -2.32062 0.641958 -3.89201 
1436 2 -1.68271 0.664929 -3.26878 
1149 2 -0.836334 1.13245 -3.85094 
1364 2 -0.427338 1.66558 -4.52149 
1310 2 -0.237453 1.19875 -3.16299 
1683 2 0.0822635 1.52649 -3.82294 
254 1 -0.398809 0.796557 -5.11563 
760 1 2.05176 1.65227 -5.16474 
594 1 0.178404 0.608138 -4.56609 
50 1 1.76293 1.2642 -4.30391 
1187 2 1.23566 2.08897 -4.10076 
1785 2 2.97279 0.919391 -4.93794 
894 1 2.52511 1.63122 -4.38208 
90 1 1.71131 0.653283 -3.47064 
1910 2 3.81958 0.955364 -4.2975 
1861 2 4.72059 1.3355 -4.51434 
1172 2 4.44904 0.807867 -3.64134 
731 1 4.16418 1.80074 -3.27124 
171 1 3.24912 1.60515 -3.77697 
1132 2 5.44186 1.61844 -4.27749 
188 1 -5.35883 3.19986 -4.37797 
7 1 -5.57416 2.96237 -3.50698 
1482 2 -4.58728 2.30858 -4.02318 
69 1 -4.51577 3.40092 -4.27671 
1512 2 -3.92547 2.21611 -3.33322 
1142 2 -4.02311 2.60263 -4.7262 
1794 2 -2.46626 3.14233 -4.24892 
1485 2 -3.40763 2.5856 -4.04937 
1015 1 -2.05339 2.04211 -4.3429 
1607 2 -1.88562 3.0475 -3.42491 
686 1 -1.42001 2.06523 -3.81331 
208 1 -0.879218 2.60294 -4.18168 
843 1 0.114696 2.98135 -4.22113 
301 1 -0.215213 2.51646 -3.58567 
1653 2 0.536334 2.04165 -4.40363 
2020 2 2.1659 2.80984 -5.00833 
240 1 0.727978 2.99672 -3.56394 
885 1 0.877555 3.38336 -4.59733 
2039 2 2.7794 2.87321 -4.26409 
1999 2 2.04649 2.28212 -3.87412 
1214 2 2.86166 2.59648 -3.46881 
1011 1 3.58067 2.20326 -4.3377 
621 1 4.39088 2.2565 -4.04591 
1562 2 4.29729 3.46921 -4.24692 
631 1 5.71963 2.85246 -4.39235 
726 1 4.89722 2.76543 -4.81442 
702 1 5.19222 2.49856 -3.68728 
1048 2 -4.59545 4.49004 -3.99407 
1349 2 5.61749 4.05005 -4.33867 
1278 2 -5.50053 4.17091 -3.93634 
1575 2 -5.03477 4.03944 -2.96402 
676 1 -4.32791 3.83677 -4.89473 
446 1 -3.75733 3.44413 -3.60709 
755 1 -3.55223 3.94416 -4.42435 
577 1 -1.87659 4.39885 -4.00581 
250 1 -2.77591 3.96838 -3.73997 
1926 2 -1.02409 3.6063 -3.82006 
17 1 -1.29268 4.44412 -3.34761 
1372 2 -0.143708 3.80436 -3.50784 
1183 2 0.612936 4.05075 -3.10644 
1668 2 1.34663 4.35574 -3.71982 
478 1 1.68747 3.48731 -4.15766 
1071 2 1.60822 4.17281 -2.73874 
76 1 1.95273 3.93624 -4.82743 
34 1 2.46107 3.8913 -3.98563 
1977 2 4.3933 3.17625 -3.4332 
653 1 3.36613 4.25078 -4.16506 
775 1 4.22852 4.72486 -4.28798 
1073 2 4.72128 4.02194 -4.83241 
1439 2 5.13778 3.58123 -3.83382 
1636 2 5.8704 3.7519 -3.08494 
662 1 -5.64326 5.27784 -3.89923 
342 1 -4.84393 5.46242 -3.52949 
1335 2 -3.57396 4.82605 -3.82749 
255 1 -4.09769 5.66352 -3.42408 
1038 2 -2.76343 5.31508 -4.16272 
1757 2 -2.02183 5.40974 -3.34726 
612 1 -0.288271 5.08504 -3.75345 
1329 2 -1.87191 5.81188 -4.21378 
237 1 1.07643 5.62675 -4.24035 
123 1 0.565698 5.23973 -3.6493 
82 1 1.44802 5.54461 -3.41253 
673 1 1.36809 -5.79341 -4.99736 
959 1 1.88182 -5.81053 -4.05136 
1042 2 2.08141 4.83654 -3.60926 
1593 2 2.2339 5.05266 -4.40533 
487 1 2.81611 -5.84539 -3.54658 
1499 2 3.05453 5.00018 -3.5655 
1764 2 3.13473 5.39141 -4.32684 
501 1 3.61831 4.66276 -4.89868 
1559 2 3.72325 5.88171 -4.82036 
1425 2 4.06474 5.62632 -3.90775 
443 1 5.25245 4.76713 -3.69147 
918 1 5.76185 4.74038 -3.04731 
1418 2 -5.50335 -5.47834 -3.63629 
878 1 -4.93897 -4.47697 -2.76822 
1534 2 -4.74662 -5.79376 -2.35985 
864 1 -5.82505 -4.80164 -2.54566 
666 1 -5.02136 -4.76783 -1.94879 
1312 2 -4.07589 -5.39253 -2.07412 
1394 2 -4.01921 -5.18645 -3.04816 
1122 2 -4.61222 -5.92246 -1.46828 
1285 2 -3.30803 -5.17274 -1.99461 
1197 2 -3.27505 -4.85493 -2.90798 
260 1 -2.21815 -5.5897 -2.84604 
1807 2 -2.57578 -4.61879 -2.58355 
295 1 -2.67667 5.93057 -2.39318 
934 1 -1.71938 -5.73221 -2.14716 
5 1 -1.8904 -5.21314 -3.52293 
459 1 -0.947088 -5.43082 -2.18901 
1402 2 -1.49639 -4.33223 -2.55807 
902 1 -0.479799 -4.80914 -3.42166 
326 1 -1.27709 -5.20085 -2.93678 
1338 2 0.186327 -5.66674 -3.91554 
1928 2 0.865554 -5.38228 -3.22549 
1319 2 2.06149 -5.02761 -3.04955 
328 1 0.236041 -4.96816 -2.0385 
1528 2 2.57202 -4.73407 -3.62201 
2019 2 2.58533 -5.16551 -2.33992 
847 1 3.54643 -5.56102 -3.29624 
1765 2 3.79949 -4.65223 -2.31288 
542 1 5.21185 -5.47917 -2.57137 
182 1 5.34114 -5.61099 -1.6478 
284 1 5.68987 -4.78282 -3.17907 
280 1 -5.57024 -4.31506 -3.55989 
1201 2 -5.22469 -3.50979 -2.48958 
1387 2 -5.66916 -3.98267 -1.89351 
411 1 -3.59187 -3.98878 -2.23827 
504 1 -3.56817 -3.21159 -4.06985 
1079 2 -2.11288 -4.17552 -3.12953 
246 1 -3.31934 -3.49048 -3.02096 
753 1 -2.77391 -3.62089 -2.29022 
677 1 -1.82131 -3.43947 -1.85817 
1452 2 -0.903876 -3.85763 -2.87164 
1280 2 -0.582183 -4.1169 -2.04473 
1580 2 1.20664 -3.54856 -1.98644 
1457 2 0.203921 -3.60759 -2.38494 
1991 2 1.03961 -3.12916 -2.95432 
107 1 0.440508 -4.4614 -2.80826 
661 1 1.42955 -4.41707 -2.32363 
20 1 2.06668 -3.95568 -3.07828 
550 1 2.33229 -4.28106 -2.01022 
1563 2 3.06153 -4.73177 -2.82967 
928 1 4.18295 -3.4603 -2.0984 
137 1 3.62412 -3.14085 -2.64132 
1817 2 5.83918 -3.50413 -3.17499 
1521 2 4.76164 -4.44034 -2.36086 
1545 2 -4.11896 -2.99183 -2.20234 
636 1 -4.57931 -1.74589 -3.21791 
592 1 -5.01557 -2.04771 -2.48766 
734 1 -5.57256 -2.56317 -2.05935 
2007 2 -3.68919 -2.63927 -2.8668 
1400 2 -3.8176 -3.26959 -1.47421 
1289 2 -3.09285 -3.17819 -0.978139 
1052 2 -3.05304 -2.78948 -1.88991 
1537 2 -1.86278 -1.78843 -3.11686 
388 1 -1.45958 -3.06797 -2.52398 
1682 2 -2.12292 -2.33845 -1.95573 
573 1 0.166924 -2.90408 -1.12731 
11 1 -0.306431 -2.81083 -2.06893 
287 1 0.324393 -2.33509 -2.82832 
1982 2 1.81218 -2.69018 -3.44535 
1738 2 2.60955 -2.45889 -3.44854 
1263 2 1.91053 -2.95525 -2.61657 
1533 2 2.82407 -2.10915 -4.31119 
1123 2 3.49323 -2.27361 -2.17754 
1066 2 2.78267 -2.52228 -2.61399 
914 1 3.77606 -3.07407 -3.55858 
1973 2 4.29128 -2.06084 -2.57225 
1030 2 4.26666 -1.67215 -3.36898 
754 1 4.56599 -3.01024 -2.73484 
311 1 4.95559 -3.16186 -2.07578 
296 1 5.69155 -2.70696 -2.82736 
1826 2 -5.27182 -0.789982 -2.99715 
1946 2 -5.63344 -1.29941 -2.03573 
1792 2 -4.84743 -0.946303 -2.26949 
291 1 -4.14871 -1.64583 -2.51119 
767 1 -3.41683 -1.32603 -3.06674 
848 1 -3.69817 -1.94138 -1.89588 
704 1 -2.54439 -1.09154 -2.81245 
37 1 -2.07496 -1.17839 -2.18135 
117 1 -2.93823 -1.53873 -2.0059 
1086 2 -0.68188 -1.83012 -1.75882 
1781 2 -1.36421 -1.97366 -2.35181 
1635 2 -0.895019 -1.53266 -3.00855 
1517 2 -0.232901 -1.56494 -2.45978 
1456 2 0.446969 -1.05306 -2.8282 
998 1 1.13287 -2.14787 -2.48291 
427 1 0.896059 -1.85774 -3.40737 
2027 2 1.63824 -1.06049 -1.53663 
1832 2 1.32506 -0.827224 -2.52738 
705 1 1.70667 -1.71098 -3.14907 
640 1 2.87545 -1.03972 -4.17413 
106 1 2.74296 -1.31594 -3.07098 
1568 2 2.29096 -0.658999 -2.32565 
125 1 3.57412 -1.01473 -2.63619 
1350 2 5.11756 -1.77933 -2.40952 
1641 2 5.8 -1.22479 -2.84102 
1279 2 5.73082 -1.8037 -1.60102 
867 1 4.7424 -0.80677 -2.21725 
692 1 -5.11464 0.477365 -2.99527 
654 1 -5.43399 0.030999 -2.44801 
297 1 5.91792 0.189564 -3.25056 
824 1 -4.327 0.458053 -2.3801 
2035 2 -4.11758 -0.574912 -2.39614 
1589 2 -3.48346 -0.720343 -1.86398 
1206 2 -2.75745 -0.161059 -2.38005 
898 1 -1.12294 -0.609852 -2.64314 
234 1 -1.83086 -0.591612 -3.28701 
1834 2 -2.26591 0.226973 -2.88493 
1104 2 -0.93205 0.897688 -2.83447 
1761 2 -1.45529 0.305478 -2.36885 
625 1 -0.0140631 -0.166509 -2.52228 
499 1 -0.694859 -0.167066 -3.19481 
776 1 0.680341 0.336169 -2.95833 
963 1 1.51548 0.513498 -2.64654 
2008 2 3.67146 0.473953 -3.60899 
1502 2 1.99184 -0.425697 -2.95154 
1696 2 2.84963 -0.043648 -3.23479 
846 1 4.3046 -0.586693 -3.00821 
1320 2 3.8348 0.200856 -2.69125 
1952 2 4.27811 0.155431 -1.77616 
1953 2 4.58125 0.768836 -2.82053 
334 1 5.14202 -0.174034 -2.84947 
241 1 5.64508 -0.346752 -2.12531 
1858 2 5.13846 0.518659 -1.95421 
1220 2 5.66332 0.469475 -1.11092 
1986 2 -5.2629 1.39802 -2.54053 
1720 2 -4.69785 1.85288 -3.14584 
1724 2 -4.79398 1.23129 -1.87451 
1282 2 -4.11718 1.73033 -2.4692 
613 1 -3.61564 0.776077 -2.86476 
164 1 -3.09526 1.25358 -3.41476 
259 1 -2.59214 1.18546 -2.46578 
94 1 -3.13772 0.786107 -2.19778 
489 1 -1.94342 1.71965 -2.95673 
189 1 -1.22596 1.76703 -2.45904 
1386 2 0.520842 1.22451 -2.53689 
2022 2 -0.363638 0.676668 -2.15924 
1893 2 0.75546 1.62192 -3.3194 
1838 2 1.27293 1.47309 -2.41554 
1340 2 1.57727 1.82091 -3.12465 
464 1 2.52486 0.789581 -2.52802 
1967 2 2.18356 1.79528 -2.13207 
1017 1 3.39814 0.899525 -1.90688 
874 1 2.47541 1.25058 -3.3769 
232 1 3.23887 1.11793 -2.87058 
1654 2 5.25468 1.30087 -3.62878 
1803 2 5.62626 1.0636 -2.74173 
194 1 5.35389 1.97748 -2.20596 
811 1 -5.54706 2.20189 -2.14217 
926 1 -4.99479 2.75786 -2.79632 
369 1 -4.59346 3.1419 -3.34761 
276 1 -3.97961 3.1778 -2.56577 
516 1 -4.38272 2.69925 -1.98827 
1938 2 -3.25953 2.06909 -2.76013 
1415 2 -2.6936 2.60643 -3.35393 
1839 2 -2.65726 2.30725 -2.10196 
1689 2 -1.35175 2.99697 -2.73783 
1476 2 -2.07886 2.66161 -2.58426 
719 1 -0.977768 2.1605 -3.21665 
585 1 -0.117996 2.00673 -2.43492 
1756 2 -0.588681 2.90853 -2.10321 
134 1 0.503963 2.56465 -2.86251 
937 1 1.42967 2.89011 -3.06898 
896 1 2.06748 2.87149 -2.47487 
945 1 1.10225 2.47427 -2.29243 
1642 2 2.58063 2.14772 -2.87801 
448 1 2.63008 3.46298 -2.65877 
1522 2 3.72252 3.06888 -3.73139 
1461 2 3.31624 2.12725 -2.36257 
1994 2 3.66261 2.68151 -2.91557 
381 1 5.8712 2.41538 -2.9423 
944 1 4.81844 2.1538 -2.91971 
1333 2 5.07259 3.2231 -2.80457 
1105 2 4.38548 2.99881 -2.51649 
1072 2 5.69815 3.00092 -2.12207 
355 1 5.47896 3.90251 -1.87699 
1419 2 -4.70295 3.8232 -1.97175 
1527 2 -5.49837 3.47232 -2.2769 
1971 2 -4.06681 4.05009 -2.33306 
1275 2 -3.34937 4.49018 -2.68889 
1325 2 -3.65399 4.02079 -1.55541 
989 1 -3.07767 3.5266 -2.95645 
772 1 -2.13653 3.94913 -2.96959 
1601 2 -2.9181 4.43615 -1.93859 
733 1 -1.76478 3.75728 -1.85989 
1304 2 -0.640936 3.39349 -2.93094 
1616 2 0.100105 3.52519 -2.46637 
836 1 -0.479824 4.73069 -3.07969 
1981 2 1.16513 3.57147 -2.23458 
1997 2 1.7728 3.67709 -1.35451 
1854 2 2.43216 4.71109 -2.91278 
394 1 2.07391 3.388 -3.35255 
835 1 3.0251 3.7853 -3.26193 
1428 2 2.22689 4.23079 -2.10677 
262 1 3.84774 4.13604 -3.33431 
552 1 3.53388 3.77446 -2.60594 
432 1 4.29593 4.08861 -2.53897 
166 1 5.2113 4.27528 -2.62649 
993 1 -5.23998 4.99725 -2.78061 
579 1 -5.73446 4.53314 -2.16846 
1918 2 -5.27493 5.63904 -1.51143 
952 1 -4.83939 4.91596 -2.00071 
1489 2 -5.52355 -5.78604 -2.75274 
589 1 -4.31452 5.1664 -2.78787 
1008 1 -3.40225 5.78496 -2.83792 
119 1 -3.67844 5.38106 -2.25169 
1957 2 -2.8806 5.03882 -3.31239 
1339 2 -2.48448 4.84563 -2.55356 
568 1 -1.20217 4.15175 -2.51613 
1236 2 -1.27579 5.72583 -3.60401 
1571 2 -0.76198 5.69067 -2.86543 
1029 2 -0.514202 -5.82203 -3.74709 
564 1 0.265148 5.00974 -2.76792 
1818 2 0.139976 -5.81439 -3.12426 
1742 2 0.556126 5.94918 -2.12332 
652 1 1.28807 5.19893 -2.50413 
736 1 0.795765 4.63775 -1.94027 
490 1 2.21214 5.42542 -2.27844 
41 1 2.19012 5.84954 -3.02651 
422 1 3.53438 -5.95706 -1.87476 
1126 2 3.19879 4.63471 -2.53295 
461 1 2.98833 5.90373 -2.70773 
1714 2 3.89071 5.18346 -3.1416 
1318 2 4.55698 5.40744 -2.95022 
1090 2 3.92903 5.11332 -2.28728 
586 1 4.09562 -5.55724 -2.52616 
1604 2 5.57441 5.73891 -3.13382 
370 1 4.69468 4.33683 -3.32496 
2000 2 -5.89821 5.46606 -2.23819 
724 1 -5.18982 -5.09694 -1.17723 
1404 2 -3.81018 -5.54 -1.32568 
248 1 -4.38527 -5.2907 0.0614438 
1047 2 -1.71644 -4.69967 -1.85162 
1783 2 -2.43215 -5.00766 -1.77448 
337 1 -1.38934 5.95402 -1.32356 
1106 2 -1.88978 -5.12265 -0.987116 
147 1 -0.415937 -4.95674 -2.56895 
678 1 -0.394338 -5.54374 -1.39245 
245 1 0.420998 -5.39925 -1.05854 
249 1 1.0276 -4.84175 -1.79621 
1984 2 1.32832 -5.57826 -2.54309 
569 1 2.43033 -4.56509 -0.728197 
1199 2 1.90408 -5.49291 -1.91303 
2004 2 3.29634 -4.98092 -1.53194 
1828 2 2.53511 -5.42472 -1.2891 
1530 2 4.43792 -4.67947 -1.60437 
1749 2 3.99533 -5.00362 -0.861982 
1013 1 4.48907 -5.75851 -1.81593 
452 1 -5.80144 -5.3099 -1.78053 
802 1 5.03299 5.9251 -0.893223 
2017 2 4.9772 -4.74683 -0.883279 
1217 2 -5.15597 -3.86109 -1.11475 
1131 2 -5.25198 -4.35425 -0.457297 
1948 2 -4.7967 -3.53296 -1.82843 
798 1 -4.10048 -4.12647 -2.74759 
366 1 -4.44635 -4.96493 -0.685608 
1857 2 -4.4158 -4.0359 -0.0200423 
21 1 -4.20212 -4.42194 -1.74622 
1442 2 -4.43513 -3.6298 -0.811245 
71 1 -2.5517 -4.02519 -1.42141 
844 1 -3.46128 -4.21056 -1.39437 
816 1 -2.81302 -4.41719 -0.565781 
324 1 -0.880867 -3.19564 -1.50992 
986 1 -1.59731 -3.79921 -1.07193 
634 1 -1.13788 -3.93665 -0.124031 
1878 2 -1.08286 -4.75196 -1.31969 
1613 2 -0.291695 -4.28968 -1.27826 
1896 2 0.480709 -3.85535 -1.51601 
1894 2 1.66409 -3.5075 -1.23798 
1923 2 2.16762 -3.18781 -1.85653 
286 1 2.80933 -4.1008 -1.34771 
1019 1 1.78301 -4.52211 -1.32288 
1985 2 2.4663 -3.31768 -0.835477 
605 1 4.65403 -3.66823 -1.22282 
385 1 3.12612 -3.61898 -2.05489 
522 1 3.66713 -3.80255 -1.46079 
1767 2 5.33357 -4.57804 -1.7274 
2002 2 5.90827 -4.44525 -1.05162 
314 1 5.47834 -3.51016 -1.04168 
275 1 -5.30296 -2.63768 -1.22318 
285 1 -4.52428 -2.26836 -1.60573 
58 1 -3.74631 -2.38462 -0.939802 
1505 2 -2.45258 -2.85415 -1.22643 
1449 2 -3.69535 -3.63836 -0.513376 
1391 2 -1.73874 -2.78726 -0.77418 
1069 2 -1.34705 -2.33919 -1.39856 
526 1 -0.604979 -3.44204 -0.699796 
1808 2 -0.487923 -2.18466 -0.987725 
347 1 1.12239 -2.64142 -0.848485 
1819 2 0.0976294 -1.70456 -1.40961 
566 1 0.643282 -2.56011 -1.83484 
211 1 1.61952 -2.36608 -1.60547 
1947 2 3.00356 -2.78419 -1.59794 
199 1 2.36859 -2.03331 -1.30303 
377 1 1.90852 -1.77555 -2.21393 
1708 2 4.0365 -2.50679 -1.57758 
1787 2 4.46408 -2.72322 -0.740633 
1492 2 3.52864 -2.91847 -1.03777 
213 1 5.77767 -2.94311 -1.65281 
1698 2 4.85942 -2.24202 -1.69246 
1978 2 5.24472 -2.37514 -0.72128 
1028 2 5.02377 -2.77471 0.152867 
1167 2 -5.6717 -1.80432 -0.785849 
1587 2 -4.93907 -1.78853 -0.315031 
1299 2 -5.00836 -1.35788 -1.27765 
1972 2 -4.19452 -1.12414 -1.3886 
1025 2 -3.5656 -0.99026 -0.931324 
917 1 -3.02303 -1.8044 -1.09952 
548 1 -2.24547 -1.46976 -1.28635 
59 1 -1.42275 -0.967499 -1.61735 
468 1 -0.456947 -0.902876 -0.951053 
683 1 -1.95465 -1.77521 -0.586661 
799 1 0.264956 -0.568984 -1.52508 
1916 2 0.828802 -1.26773 -1.92962 
1360 2 2.34221 -1.00097 -0.82797 
2046 2 1.0671 -1.52844 -1.11225 
691 1 2.7232 -1.48656 -2.10822 
1897 2 2.81741 -0.59541 -1.46737 
1831 2 2.49155 -1.28991 -0.0145151 
626 1 4.01505 -1.18584 -1.87163 
962 1 3.339 -1.62789 -1.36321 
198 1 4.67634 -1.39917 -1.20158 
279 1 5.21638 -0.807171 -1.49467 
737 1 5.586 -0.670737 -0.889351 
958 1 -4.99568 -0.50338 -0.842267 
518 1 -5.6955 -0.449043 -1.46362 
912 1 -3.72607 0.379095 -1.75092 
876 1 -4.87594 0.0729005 -1.73484 
472 1 -4.24334 -0.062999 -1.13392 
1432 2 -2.69714 -0.503119 -1.36959 
921 1 -3.16441 0.44618 -1.21303 
1098 2 -2.12217 -0.476713 -0.655727 
2043 2 -2.06344 -0.102486 -1.84424 
1067 2 -1.48813 -0.0930319 -1.15525 
1735 2 -0.86881 0.316757 -1.63149 
1323 2 -0.971913 -0.116156 -0.368186 
630 1 -0.641477 -0.609247 -1.87058 
447 1 0.885974 0.0834134 -2.16747 
601 1 0.606465 -0.659373 -0.686698 
1213 2 -0.443225 0.225588 -0.935978 
160 1 1.30088 -0.0834337 -1.29977 
886 1 1.78032 0.221152 -1.78896 
1314 2 3.1331 -0.17811 -2.31974 
243 1 2.65495 0.479471 -1.56874 
837 1 2.12836 0.0383404 -0.890369 
1680 2 3.61668 -0.417015 -1.46944 
1758 2 3.18521 -0.767254 -0.725016 
1529 2 4.13091 -0.490233 -0.762849 
1468 2 -5.52596 0.353464 -0.6619 
2030 2 4.81434 0.123617 -1.12775 
1059 2 -5.33499 0.920402 -1.34343 
1508 2 5.93805 0.837957 -2.00627 
16 1 5.8035 1.81274 -1.48198 
2038 2 -4.04019 1.29281 -1.41906 
1229 2 -3.42494 1.30584 -0.760302 
1520 2 -3.60264 1.79895 -1.93853 
357 1 -2.51713 0.798092 -1.55965 
1170 2 -2.91959 1.69016 -1.36515 
397 1 -1.85092 1.13031 -1.99641 
919 1 -1.38217 1.12648 -1.27389 
303 1 -2.05647 0.672832 -0.804624 
115 1 -0.711476 1.61404 -1.81705 
660 1 -0.103974 1.48217 -1.02813 
1297 2 0.758958 1.10966 -1.68661 
1860 2 0.262841 0.507801 -1.47648 
1944 2 1.57375 1.19084 -1.49833 
1726 2 1.72091 0.921099 -0.539051 
1158 2 2.30275 1.43407 -1.07185 
1368 2 2.88876 1.75353 -1.57121 
84 1 3.47692 0.631058 -0.962536 
1866 2 3.60548 2.02574 -1.04238 
104 1 4.0735 1.09415 -1.41977 
110 1 4.13699 1.55786 -2.35709 
920 1 4.83431 1.45253 -1.77675 
783 1 4.35071 0.945363 -0.612249 
761 1 -5.0397 2.21488 -1.46311 
966 1 -4.4042 2.1485 -0.864053 
1330 2 -5.81487 2.85441 -1.22691 
322 1 -3.8107 2.66174 -1.36551 
323 1 -3.36507 3.07605 -1.96186 
460 1 -3.01634 2.83309 -1.02632 
1959 2 -1.61452 2.59639 -1.87312 
2021 2 -1.00913 2.51614 -1.44922 
1092 2 -1.94697 1.99818 -1.13962 
910 1 0.375283 2.04365 -1.6973 
1247 2 -0.0257962 2.87486 -1.25057 
2047 2 -0.355025 2.46686 -0.613599 
747 1 1.70306 2.63894 -1.63875 
828 1 2.81155 2.78322 -0.730555 
143 1 2.54116 2.85805 -1.49244 
181 1 3.16871 3.27346 -1.98777 
1026 2 4.593 2.41206 -1.23186 
1686 2 4.02015 2.45173 -1.87344 
906 1 3.58502 3.19207 -1.13673 
1825 2 4.99616 2.88269 -1.82552 
1554 2 5.15901 2.16667 -0.0821266 
974 1 -5.30333 4.45279 -1.42059 
506 1 5.86892 3.99646 -1.14684 
679 1 -4.51147 4.53394 -1.00739 
1669 2 -4.3685 3.5565 -1.14095 
1287 2 -5.10911 3.30064 -1.25731 
1992 2 -3.29667 3.83991 -0.805303 
1853 2 -3.8868 3.32172 -0.409562 
26 1 -2.56526 3.51418 -2.19733 
1348 2 -2.58976 4.43802 -1.29814 
1344 2 -1.89447 4.79896 -1.69649 
1646 2 -1.13761 4.80528 -1.11332 
520 1 -2.3132 3.14553 -1.27352 
111 1 -1.35877 3.4324 -1.27367 
86 1 -0.829167 3.93442 -1.80622 
1679 2 0.388206 3.28701 -1.76544 
361 1 -0.326401 4.39881 -2.23535 
418 1 -0.261163 3.78851 -0.98 
187 1 1.55419 4.62859 -1.06111 
1107 2 1.05649 3.28263 -1.1165 
671 1 2.00306 4.78734 -0.344614 
1968 2 2.26537 3.65543 -0.723371 
1913 2 2.61674 4.00407 -1.33917 
1868 2 3.21378 4.55464 -1.72695 