ITEM: TIMESTEP
14800
ITEM: NUMBER OF ATOMS
2048
ITEM: BOX BOUNDS pp pp pp
-5.9433832900513526e+00 5.9433832900513526e+00
-5.9433832900513526e+00 5.9433832900513526e+00
-5.9433832900513526e+00 5.9433832900513526e+00
ITEM: ATOMS id type x y z 
1633 2 -5.17955 -4.72322 -5.0132 
473 1 -4.85619 -5.66096 -5.75534 
333 1 -3.77806 -5.03265 -5.58458 
14 1 -4.21664 -5.44497 -5.05894 
91 1 -2.7871 -4.76011 -5.58056 
805 1 -3.21324 -5.08192 -4.9156 
416 1 -2.24241 -4.77043 -4.99378 
1958 2 -1.7154 -5.58331 -5.32118 
2029 2 -1.25981 -5.25701 -5.9488 
1035 2 -0.264677 -5.01461 -5.53071 
1429 2 0.550839 -4.76589 -5.01181 
628 1 1.81774 -5.1496 5.903 
648 1 2.48419 -5.08748 -5.44444 
49 1 2.984 -4.54345 -5.68059 
1704 2 3.65536 -5.93987 -5.52533 
180 1 3.51951 -4.88283 -4.90502 
442 1 2.79234 -5.42128 -4.63059 
1192 2 4.71776 -5.51163 -5.31604 
1799 2 5.75416 -5.16959 -5.45368 
1931 2 5.01184 -5.05818 -5.93685 
1358 2 5.27515 -5.52406 -4.61117 
511 1 -4.99705 -3.58632 -4.74851 
353 1 -4.18988 -3.28619 -4.79349 
1663 2 -4.53325 -4.46014 -4.61568 
273 1 -4.09348 -3.53917 -4.04957 
1103 2 -4.30951 -4.20276 -5.36817 
1261 2 -3.7744 -4.47248 -4.10879 
1602 2 -3.52611 -4.19023 -4.92812 
1711 2 -2.78411 -3.64357 -5.46623 
2009 2 -1.9691 -3.37026 -5.17953 
227 1 -0.952585 -4.33089 -4.98129 
924 1 -1.43663 -4.29959 -5.60031 
1746 2 0.479587 -4.42343 5.7306 
819 1 -0.490157 -3.97582 -5.50834 
413 1 0.305939 -3.9039 -4.80979 
202 1 0.0859616 -3.47776 -5.70681 
1709 2 1.2946 -4.29834 -5.58982 
136 1 0.926578 -3.43576 -5.11366 
1678 2 1.88541 -4.47411 -4.86142 
547 1 1.58197 -3.48296 -4.53199 
1737 2 2.96506 -3.98308 -4.6856 
1705 2 2.36287 -3.83489 -5.42801 
57 1 4.39727 -4.47338 -5.14078 
1232 2 3.97169 -3.60555 -4.82772 
19 1 3.7689 -4.40217 -5.82444 
1483 2 3.38168 -3.63876 -5.5132 
223 1 -5.8036 -3.76158 -4.65818 
496 1 5.33551 -4.14825 -5.34481 
675 1 -5.63416 -3.85869 -5.5135 
1588 2 -4.7722 -1.94907 -5.62891 
1937 2 -5.43396 -2.46153 -5.20312 
1243 2 -4.18604 -2.1398 -4.87175 
218 1 -3.84877 -2.90111 -5.45653 
524 1 -3.42337 -3.00785 -4.72197 
664 1 -3.09499 -2.46815 -5.34315 
196 1 -2.39398 -2.4339 -4.92481 
151 1 -1.77544 -2.11664 -5.57537 
1379 2 -1.44352 -3.02213 -5.74648 
35 1 -1.14641 -2.10321 -4.91023 
1370 2 -0.784284 -2.95599 -5.29628 
1255 2 -0.277323 -2.3866 -5.67779 
1909 2 0.614327 -2.30718 -5.47311 
1820 2 1.38719 -1.83221 -5.69946 
1190 2 1.64201 -2.00491 -4.96093 
1 1 1.23701 -3.06679 -5.77889 
939 1 1.9229 -2.86316 -5.16376 
277 1 3.04289 -2.66985 -5.07351 
694 1 2.47251 -2.55326 -5.74825 
1129 2 4.73153 -3.22941 -5.14862 
485 1 3.62694 -2.22837 -5.65826 
904 1 4.29419 -2.31767 -5.19766 
1475 2 5.70319 -2.64583 -5.71754 
1465 2 5.52267 -2.9798 -4.94665 
205 1 -4.67817 -1.24604 -4.51564 
771 1 -4.90802 -1.00043 -5.46001 
833 1 -4.08343 -0.798624 -4.98894 
1745 2 -3.57758 -1.66819 -5.20292 
1341 2 -4.00662 -1.59806 5.84329 
543 1 -4.18126 -0.52805 -5.78344 
1733 2 -2.90205 -1.29888 -5.69267 
1809 2 -1.97762 -0.733634 -5.4951 
1345 2 -1.10194 -0.681551 -5.14138 
595 1 -1.05806 -1.67518 5.96392 
830 1 -0.507572 -1.48212 -5.32675 
8 1 0.341236 -1.37205 -4.80958 
578 1 0.541727 -1.02892 -5.63916 
768 1 1.07879 -1.4779 -4.13043 
31 1 2.41445 -0.532404 -5.06522 
1515 2 1.87715 -1.47968 5.69405 
788 1 1.07496 -1.12136 -4.94288 
1964 2 2.35197 -1.52199 -5.4464 
1590 2 3.07065 -1.1693 -5.6889 
1775 2 3.86757 -1.24952 -5.13133 
475 1 3.94204 -1.64299 5.74191 
609 1 4.89404 -1.62194 5.91718 
1332 2 4.78789 -0.828372 -5.07259 
308 1 5.81917 -1.42669 -5.52444 
1498 2 -4.95297 0.145706 -5.07341 
1634 2 -5.33463 -0.448589 -3.9511 
1615 2 -5.60896 -0.286666 -4.7739 
2028 2 -4.05814 0.609456 -5.73305 
1962 2 -3.39112 0.844923 -5.21038 
505 1 -3.32279 -0.311391 -5.30577 
386 1 -2.71553 0.271091 5.98109 
451 1 -1.81448 0.348206 -5.21667 
374 1 -1.93933 0.65009 5.9152 
827 1 -0.876251 0.694522 -5.48363 
1572 2 -0.280306 -0.577895 -4.61692 
1975 2 -0.468963 -0.263704 -5.64002 
1223 2 0.87457 -0.246186 -4.55593 
1963 2 0.327142 0.0346361 -5.22691 
1180 2 2.38 0.457167 -4.72469 
1777 2 1.8096 -0.0142961 -4.25243 
42 1 1.68071 -0.628182 -5.45983 
1852 2 1.42034 0.295483 -5.1568 
195 1 3.36057 0.243795 5.57513 
138 1 2.97369 -0.0888325 -5.68809 
1785 2 2.92579 0.37915 -4.04457 
831 1 2.70793 0.0687949 4.77691 
1224 2 4.45118 -0.624164 -5.91109 
758 1 3.90323 0.144194 -5.30243 
1494 2 5.5402 -0.409012 -5.28766 
60 1 4.38327 0.578569 -5.81323 
656 1 -5.46673 0.945238 -4.76471 
915 1 5.89985 0.979632 -5.5103 
148 1 -5.38688 1.48642 -5.82111 
752 1 -4.7999 1.33122 -5.24882 
1343 2 -3.30008 1.23411 5.67878 
190 1 -3.69954 1.84987 -5.06524 
1256 2 -2.72731 1.15916 -5.60745 
1736 2 -2.77294 0.927585 -4.63794 
1058 2 -3.50896 1.5957 4.84538 
689 1 -3.01367 1.86889 -4.36104 
1050 2 -2.03985 1.3189 -4.96492 
1054 2 -1.28872 1.68053 -5.14393 
212 1 -0.417648 1.19805 5.82207 
842 1 0.193147 1.07658 -5.38883 
1364 2 -0.434834 1.7269 -4.75453 
156 1 0.824179 1.46537 -5.58496 
551 1 1.14692 1.21702 -4.8515 
380 1 1.62362 1.59019 -5.5164 
760 1 1.91453 1.4356 -4.6695 
1882 2 2.55707 0.811198 -5.36009 
1845 2 3.13564 1.15656 5.92556 
1226 2 3.61042 1.75066 5.51679 
1497 2 4.87796 1.97611 -5.79696 
420 1 5.19751 1.00866 5.94779 
1431 2 5.61766 2.41441 5.67062 
1068 2 4.80128 1.40915 -4.75668 
1403 2 5.49546 1.97478 -5.02006 
1716 2 -4.52109 2.88793 -5.42484 
1810 2 -5.59389 1.87058 -4.3932 
1620 2 -3.86806 3.20812 -5.8246 
1175 2 -3.39903 3.19612 -5.07999 
697 1 -4.21608 1.85803 -5.63737 
1482 2 -4.10638 2.67637 -4.6699 
820 1 -2.96444 2.2607 -5.36639 
982 1 -2.27473 2.35378 -4.77898 
1625 2 -2.65888 3.34932 -4.49103 
852 1 -1.54372 3.08932 -5.53802 
310 1 -1.53184 2.65576 -4.69918 
1884 2 0.228549 2.31556 -5.33783 
561 1 -0.623046 3.21867 -5.28709 
1653 2 0.492666 1.98799 -4.61871 
1506 2 0.864627 2.63893 -5.87974 
895 1 2.49362 1.82546 -5.35683 
1011 1 3.26668 1.82192 -4.76512 
1628 2 2.19382 2.68931 -4.98844 
621 1 4.17835 2.29622 -4.43366 
574 1 3.63588 2.44182 -5.2702 
396 1 4.61354 2.6828 -5.15436 
178 1 5.11015 3.28179 -5.78438 
204 1 5.77527 3.35173 -5.28393 
923 1 -4.96519 3.75059 -5.03692 
644 1 -5.24707 3.73959 -5.84683 
45 1 -4.31608 4.09415 -5.66999 
92 1 -3.85257 4.15656 -4.85376 
687 1 -3.207 4.54402 -5.24884 
1824 2 -2.11212 3.78467 -5.04807 
1869 2 -2.66264 3.65829 -5.73034 
632 1 -2.50446 4.58289 -4.544 
1336 2 -1.38211 4.11548 -5.28724 
1161 2 -0.796507 4.16215 -4.80864 
1268 2 -1.53448 3.70377 -4.44577 
1145 2 -0.435117 4.51842 -5.5501 
593 1 -0.0588568 3.63509 5.90764 
1354 2 0.240809 4.38107 -4.78615 
56 1 0.484269 3.49284 -5.40398 
709 1 1.49231 3.85567 -5.21504 
815 1 0.104703 3.98989 5.01149 
1979 2 2.51366 3.39664 -5.77198 
716 1 0.857776 3.95302 5.69261 
1274 2 3.42509 3.44399 -4.97294 
884 1 2.22487 4.27287 -5.45506 
1342 2 3.41475 3.65109 -5.90277 
1618 2 4.28825 3.5772 -5.00344 
1779 2 5.02769 4.26451 -5.40627 
1073 2 5.47702 4.17205 -4.70565 
1640 2 -5.86202 4.68876 -5.2631 
412 1 -5.02429 -5.93417 -4.84935 
1088 2 -4.68522 5.00171 -5.26863 
1048 2 -5.18276 4.63733 -4.57544 
1353 2 -3.87434 5.38806 -5.09317 
1365 2 -2.81536 5.81966 -5.23137 
1038 2 -3.1906 5.55406 -4.49696 
1526 2 -2.18676 5.82887 -4.52908 
638 1 -2.68716 5.0489 -5.79847 
221 1 -2.0193 4.93862 -5.28216 
87 1 -0.599685 5.34102 -4.57597 
428 1 -1.32259 5.38907 -5.53054 
1306 2 0.119769 5.08779 5.75081 
528 1 -0.463089 5.58437 -5.33844 
495 1 1.23172 -5.5052 -5.30993 
1033 2 1.24494 4.71397 -4.62936 
1093 2 1.38392 5.40067 5.89814 
2040 2 0.698503 4.83925 -5.4493 
777 1 3.40047 4.68337 -5.1921 
1955 2 1.79339 5.1953 -5.23465 
1691 2 3.25844 5.62427 -4.98734 
946 1 4.76436 5.27319 -4.99916 
407 1 4.09579 5.10128 -5.62651 
435 1 -5.6349 5.85417 -5.5857 
825 1 5.78411 5.57219 -4.70553 
699 1 5.26738 5.57224 -5.50459 
1849 2 -5.78551 -5.1372 -4.6065 
2016 2 -4.90251 -4.99006 -4.01257 
1418 2 -5.31439 -5.43573 -3.33891 
1312 2 -4.20899 -5.2337 -2.86385 
1394 2 -4.28878 -4.96111 -3.53432 
508 1 -3.72989 -5.52535 -4.21696 
247 1 -2.72653 -5.0701 -4.17046 
274 1 -2.97163 -5.56378 -3.40334 
1291 2 -0.817202 -5.42737 -5.04076 
855 1 -1.45261 -4.65881 -4.56277 
453 1 -1.76614 -5.0624 -3.88044 
902 1 -0.79781 -4.83526 -3.80599 
1334 2 -0.0153011 -5.29935 -4.72527 
1260 2 0.66819 -5.28375 -4.05111 
1486 2 1.28161 -4.84816 -4.38296 
575 1 1.90686 -5.49119 -5.0976 
1887 2 1.98365 -4.95601 -3.8251 
425 1 2.14866 -5.82133 -4.27355 
955 1 2.85213 -5.57681 -3.65787 
667 1 3.61408 -5.18297 -4.08485 
131 1 4.57132 -4.8319 -4.26572 
847 1 3.51289 -5.60931 -3.18324 
1773 2 5.78695 -5.51099 -3.834 
1272 2 4.64354 5.92733 -3.98778 
339 1 5.28276 -4.66776 -3.4929 
373 1 -5.86445 -4.18327 -3.98985 
991 1 -4.98056 -3.85562 -3.96538 
280 1 -5.45236 -4.31927 -3.29939 
878 1 -4.74816 -4.35005 -2.76614 
1548 2 -2.67114 -4.1803 -3.82287 
483 1 -4.23188 -3.84245 -3.25113 
313 1 -3.33214 -3.38329 -3.76387 
1231 2 -2.59738 -3.82167 -4.62175 
1079 2 -2.0792 -4.13543 -3.21423 
1477 2 -1.77928 -3.77888 -4.16128 
1581 2 -1.18054 -3.4216 -4.82423 
467 1 -0.32854 -4.30351 -4.3118 
782 1 0.301188 -4.44446 -3.6506 
1645 2 -0.543089 -3.39345 -4.29547 
122 1 0.924711 -3.89522 -4.21767 
1001 1 2.07721 -3.51024 -3.8032 
1592 2 2.54259 -4.46035 -4.20713 
1836 2 3.61502 -4.05893 -4.1536 
1198 2 3.13243 -4.38539 -3.57686 
639 1 3.21953 -3.12991 -4.06474 
1902 2 4.44339 -3.71265 -3.95633 
1844 2 4.20795 -4.19612 -3.2574 
809 1 5.19513 -4.44517 -4.48511 
1655 2 5.6266 -3.25411 -3.56451 
1657 2 -5.61201 -2.85467 -4.27735 
1664 2 -4.81229 -2.60319 -4.43385 
1871 2 -5.30431 -2.9775 -3.52917 
1924 2 -4.43057 -2.5942 -3.68364 
1911 2 -3.72787 -2.24728 -4.1868 
2007 2 -3.57855 -2.46164 -3.38471 
236 1 -2.74642 -2.77944 -4.2771 
599 1 -2.42171 -3.05965 -3.46595 
1867 2 -3.01364 -1.85233 -3.76534 
657 1 -1.82005 -2.65205 -4.31429 
597 1 -1.01871 -2.5015 -3.8635 
1006 1 -0.161655 -1.90844 -4.54895 
1763 2 0.0015864 -2.79667 -4.84215 
1555 2 0.938185 -2.82808 -3.86567 
1525 2 0.972574 -2.53285 -4.62112 
1083 2 1.69936 -2.627 -3.75714 
403 1 2.5423 -3.12425 -4.53743 
471 1 3.97971 -2.8785 -3.66206 
602 1 3.8132 -2.71525 -4.52583 
140 1 4.83312 -2.38771 -4.31343 
2010 2 5.07458 -3.35218 -4.38752 
999 1 5.09251 -1.8324 -5.07501 
784 1 5.73224 -1.88161 -4.40584 
562 1 5.04194 -2.35125 -3.53121 
66 1 -5.25 -1.69323 -4.18189 
291 1 -4.75135 -1.61535 -3.54743 
161 1 -4.05227 -1.26647 -3.9668 
717 1 -3.49577 -0.778399 -4.33636 
1097 2 -2.92912 -1.6905 -4.54363 
704 1 -2.15482 -0.807404 -3.31468 
1271 2 -2.29327 -1.33998 -5.05926 
1908 2 -1.98307 -1.55753 -4.03448 
1478 2 -1.52177 -1.22273 -4.59844 
1296 2 -1.30808 -1.57919 -3.53323 
674 1 0.356905 -1.96345 -3.93148 
1573 2 -0.784443 -1.03969 -4.18187 
1870 2 -0.151562 -1.09803 -3.36637 
421 1 -0.300697 -2.36289 -3.39909 
866 1 1.90666 -1.02033 -4.56715 
560 1 3.21577 -0.245606 -4.73475 
1676 2 2.29197 -2.12153 -4.34995 
1259 2 2.97819 -1.74056 -4.81351 
116 1 2.72711 -0.847747 -4.12301 
1363 2 3.45606 -1.73583 -4.20323 
2036 2 4.30261 -1.31221 -4.46466 
2048 2 4.26124 -1.59519 -3.62739 
740 1 -5.52168 -1.39375 -4.86926 
1623 2 5.61052 -0.719014 -4.38771 
1163 2 5.04839 -1.14464 -3.93074 
1110 2 5.07577 -1.20576 -3.06594 
2001 2 -5.9323 -0.93971 -3.56408 
1830 2 -4.74966 -0.0942433 -4.36736 
1754 2 -4.59192 -0.428787 -3.50357 
818 1 -5.52554 0.563265 -3.80056 
1346 2 -4.06428 0.293578 -4.93795 
1111 2 -3.83805 -0.0114202 -3.84643 
214 1 -2.76015 -0.505179 -4.3753 
701 1 -2.56796 -0.0609083 -5.19235 
1184 2 -3.42087 0.48406 -4.34752 
1643 2 -2.53031 0.379383 -3.86563 
1876 2 -3.05448 0.335649 -3.31482 
749 1 -1.87851 -0.197112 -4.30765 
789 1 -1.29436 0.271579 -4.59708 
615 1 -0.863172 -0.0102067 -3.76996 
517 1 -0.355646 0.606111 -4.74783 
1644 2 0.37181 -0.651335 -3.97549 
80 1 -0.0939135 -0.139541 -3.20437 
1673 2 1.28697 -0.59609 -3.63768 
1021 1 0.802157 0.351645 -3.34479 
1470 2 3.13937 0.936787 -4.82728 
1412 2 2.28819 -0.104044 -3.57795 
2008 2 3.13173 0.255916 -3.29749 
299 1 3.81716 -0.353105 -4.41818 
700 1 3.6198 -0.661086 -3.53579 
715 1 4.32296 -0.404112 -3.72185 
302 1 5.04203 0.55465 -5.26127 
469 1 4.47826 0.0535462 -4.78185 
872 1 5.06927 0.099516 -4.02366 
32 1 5.76159 0.486543 -4.42172 
1132 2 5.33783 1.46006 -4.20761 
1877 2 -5.44333 1.71894 -3.58519 
278 1 -4.71042 0.888714 -4.15152 
338 1 -4.22115 1.4151 -4.50276 
230 1 -3.63988 1.31912 -3.92828 
164 1 -3.32529 1.16074 -3.05523 
903 1 -2.66582 1.48339 -3.60824 
489 1 -1.7891 1.65835 -3.05884 
1550 2 -1.8896 0.932705 -4.09787 
1436 2 -1.28 0.879539 -3.50815 
408 1 -0.0800321 0.492265 -3.84838 
1149 2 -1.31259 1.31322 -4.42558 
1310 2 -0.551971 1.38033 -3.92854 
1683 2 0.422869 1.73167 -3.78219 
254 1 0.472814 0.718215 -4.36964 
594 1 1.24125 0.968872 -3.8938 
894 1 2.55342 1.61902 -4.11962 
874 1 3.00771 1.49362 -3.40915 
50 1 1.99529 1.10325 -3.6965 
1204 2 3.8921 1.42773 -5.52551 
1910 2 3.74833 0.511607 -3.7661 
1861 2 4.02774 0.991833 -4.54106 
1172 2 4.64199 0.95645 -3.67718 
1377 2 -5.11334 2.36582 -4.95366 
188 1 -5.59559 3.27794 -4.57553 
69 1 -5.13315 3.10052 -3.81291 
1728 2 -4.73185 2.06328 -4.03124 
1512 2 -3.89521 2.32976 -3.64629 
1142 2 -3.24569 2.80461 -4.0256 
1794 2 -2.03425 3.1761 -3.75618 
1485 2 -2.71423 2.69535 -3.27025 
1015 1 -2.03995 2.12214 -3.83059 
1607 2 -1.74042 2.78555 -2.96223 
686 1 -1.20241 2.25709 -3.64226 
843 1 0.00546172 3.04908 -4.60545 
208 1 -0.660805 2.71531 -4.2593 
301 1 -0.105495 2.5332 -3.52435 
1769 2 1.37253 2.62983 -5.1583 
2020 2 1.33591 2.15299 -4.43583 
240 1 0.627189 2.92925 -3.93125 
2039 2 2.72601 3.00291 -4.49991 
1999 2 2.19604 2.63495 -3.85444 
1214 2 3.28054 2.80336 -3.89182 
731 1 4.31518 2.08199 -3.43098 
171 1 3.60867 1.75439 -3.97257 
1977 2 4.32711 3.32449 -3.57996 
631 1 5.82164 2.64743 -3.98709 
726 1 5.39763 2.94055 -4.65272 
702 1 4.88484 2.36469 -3.95121 
381 1 5.73796 2.46837 -3.10942 
1349 2 -5.83547 4.17323 -4.09332 
1575 2 -4.84192 4.31083 -3.78811 
676 1 -4.31387 3.50864 -4.2663 
1971 2 -4.60537 4.0283 -2.99762 
755 1 -3.27214 4.1253 -4.36358 
446 1 -3.62135 3.60561 -3.59186 
1275 2 -4.02761 4.60776 -3.37611 
577 1 -1.9919 4.35067 -3.81775 
250 1 -2.72569 4.0103 -3.55345 
612 1 -0.941753 4.76393 -3.85833 
1926 2 -1.14221 3.41711 -3.60036 
1372 2 -0.440416 3.77781 -3.99572 
1304 2 -0.292129 3.55589 -3.05228 
885 1 1.14081 3.38401 -4.45207 
1183 2 0.356406 3.92534 -3.37768 
478 1 1.73348 3.5712 -3.78595 
76 1 2.06153 3.7951 -4.58054 
34 1 2.70322 3.88366 -3.71615 
256 1 2.76786 4.26268 -4.68969 
1562 2 3.84778 3.1708 -4.27455 
653 1 3.45143 4.24535 -4.09058 
1439 2 4.77677 3.7019 -4.17293 
1636 2 5.55147 3.6497 -3.61929 
775 1 4.15629 4.38254 -3.59157 
662 1 -5.4302 5.7051 -4.15556 
993 1 -5.44927 4.99259 -3.32928 
579 1 5.82618 4.63473 -2.76895 
346 1 -4.45719 -5.94688 -4.26969 
1413 2 -4.35257 4.91385 -4.4276 
1335 2 -3.54068 5.01263 -4.04491 
255 1 -3.942 5.8976 -3.39091 
1757 2 -2.60801 5.42901 -3.89467 
1957 2 -3.04299 5.06102 -3.19888 
1542 2 -1.2967 -5.78216 -4.41725 
1151 2 -0.294989 -5.71048 -3.95961 
340 1 -1.51921 5.11373 -4.49783 
237 1 0.346069 5.6476 -4.66929 
123 1 -0.0268246 5.06474 -3.96943 
82 1 0.905587 5.50402 -3.97027 
564 1 0.0651197 4.89781 -2.97199 
673 1 1.35523 5.90707 -4.57452 
1668 2 0.666244 4.3657 -4.09606 
959 1 1.65003 5.65667 -3.5946 
1042 2 1.94098 4.70469 -3.88846 
1593 2 2.3432 5.15575 -4.63647 
501 1 4.0625 4.6128 -4.66858 
1612 2 4.0998 -5.86426 -4.75706 
1559 2 3.60696 5.44813 -4.15764 
1425 2 4.21695 5.43804 -3.47483 
1604 2 5.19402 -5.98832 -3.32137 
443 1 4.82428 4.89557 -4.33757 
918 1 5.60468 5.04084 -3.74607 
1534 2 -5.01169 -5.67146 -2.53845 
182 1 5.4443 -5.00983 -2.16035 
1122 2 -4.18098 -5.55008 -1.91668 
1285 2 -3.34392 -5.25623 -2.28357 
1197 2 -3.44195 -4.67927 -3.19715 
260 1 -2.17763 -5.51869 -3.24254 
1047 2 -2.56315 -5.08724 -1.81165 
1807 2 -2.69359 -4.66389 -2.76943 
934 1 -1.67599 -5.63361 -2.33664 
5 1 -1.16211 -5.25695 -2.96469 
326 1 -0.117097 -4.72092 -3.13146 
1338 2 0.292829 -5.78789 -3.25309 
1928 2 0.831565 -5.56327 -2.62091 
459 1 -0.555629 -5.25426 -2.30098 
1082 2 1.22391 -5.26796 -3.40651 
1319 2 1.7976 -5.31864 -2.69304 
1528 2 2.44479 -4.92117 -3.13886 
487 1 2.44709 5.77839 -3.15939 
2019 2 2.81892 -5.21394 -2.23939 
1563 2 3.14496 -4.55323 -2.75754 
422 1 3.11742 5.72471 -2.55268 
1765 2 3.86607 -4.69601 -2.21546 
542 1 4.17493 -5.61306 -2.46887 
153 1 4.22669 -5.15055 -3.49502 
284 1 4.89831 -5.23226 -2.81184 
1013 1 4.878 -5.65424 -1.81134 
864 1 5.92617 -4.72441 -2.82785 
666 1 -5.18602 -4.75215 -2.15494 
1201 2 -5.82119 -3.43308 -2.71585 
1817 2 5.51001 -3.93873 -2.1682 
411 1 -3.92762 -4.29766 -2.36158 
504 1 -3.44424 -3.68447 -2.87338 
246 1 -2.89341 -3.92125 -1.96518 
753 1 -2.66542 -3.42078 -2.66216 
677 1 -1.66086 -3.25719 -2.40032 
71 1 -2.04274 -3.77048 -1.83586 
1452 2 -1.22833 -4.23209 -2.9786 
1848 2 -0.989324 -3.72522 -3.56443 
1280 2 -0.618138 -4.04604 -2.45034 
1402 2 -1.80612 -4.60776 -2.35337 
324 1 -1.07537 -3.29081 -1.89554 
1580 2 0.428759 -3.63798 -2.34752 
1457 2 -0.214586 -3.52892 -3.0916 
1991 2 0.65797 -3.381 -3.12722 
107 1 0.904025 -4.45987 -2.99203 
938 1 1.41896 -4.04521 -3.56322 
20 1 2.05279 -3.82836 -2.98232 
321 1 2.85689 -3.35644 -3.34801 
914 1 3.55493 -3.39359 -2.82717 
550 1 2.68873 -3.88478 -2.245 
1521 2 4.66938 -4.30002 -2.46406 
1530 2 4.24077 -4.93279 -1.2038 
928 1 4.23261 -3.38379 -2.31277 
1240 2 5.07195 -3.71097 -3.16923 
1767 2 4.72266 -4.50008 -1.6619 
1545 2 -4.87071 -3.07661 -2.68141 
968 1 -5.8972 -2.06892 -3.40497 
636 1 -5.26784 -2.19503 -2.83785 
1400 2 -4.11377 -2.86499 -2.75229 
1948 2 -4.71522 -3.42226 -1.85473 
1289 2 -3.35377 -2.79506 -1.99526 
1052 2 -2.92679 -2.36053 -2.6895 
388 1 -1.47122 -2.90558 -3.25743 
526 1 -0.275102 -3.1444 -1.49185 
1401 2 0.1648 -3.18643 -3.83363 
573 1 -0.0607062 -2.70173 -2.30397 
11 1 -0.796153 -2.81428 -2.67091 
1982 2 1.25627 -3.0418 -3.05475 
998 1 1.26616 -2.10679 -2.29704 
1738 2 1.96473 -2.79092 -2.4545 
1326 2 2.85561 -2.27949 -3.60913 
1533 2 2.25754 -2.54968 -3.14983 
1123 2 3.06145 -2.46938 -2.52743 
1973 2 4.00071 -2.31685 -2.25348 
1030 2 3.50786 -1.99105 -3.14791 
754 1 4.60221 -2.86444 -2.94279 
311 1 5.15338 -2.9285 -2.03416 
296 1 5.45998 -2.40218 -2.70899 
213 1 5.79392 -2.99279 -1.32888 
1826 2 -5.16237 -0.858583 -3.05714 
1946 2 -5.02775 -1.01756 -2.21426 
592 1 -4.44397 -1.84433 -2.84373 
1792 2 -4.32379 -0.550776 -2.66557 
767 1 -3.81177 -1.3052 -3.09194 
848 1 -3.6141 -1.6887 -2.4503 
37 1 -2.09433 -0.983187 -2.51427 
419 1 -3.13472 -0.944997 -3.41231 
117 1 -2.89861 -1.26599 -2.67156 
898 1 -1.31086 -0.664906 -2.47014 
1537 2 -2.21965 -1.98625 -3.29341 
1086 2 -0.871411 -1.87491 -2.17851 
1781 2 -1.65583 -1.87651 -2.65391 
1635 2 -0.750072 -1.42304 -2.87211 
1517 2 0.02722 -1.43023 -2.4845 
287 1 0.479561 -2.21787 -2.90365 
427 1 1.32616 -1.78578 -3.33748 
705 1 1.96561 -1.59599 -2.73156 
2027 2 0.654979 -1.28351 -1.96203 
640 1 2.90324 -1.16661 -3.12936 
581 1 2.10873 -1.50498 -3.64242 
106 1 2.71689 -1.63994 -2.20081 
125 1 3.62623 -1.23677 -2.22143 
334 1 4.8799 -0.276628 -3.02194 
1641 2 5.88152 -1.23692 -2.82772 
1350 2 4.34345 -1.69323 -2.80435 
1279 2 5.08856 -1.60007 -2.2145 
692 1 -5.15872 0.472898 -2.9886 
654 1 -5.28997 -0.105103 -2.02536 
297 1 -5.76866 0.0252685 -2.68272 
824 1 -4.64508 0.274594 -2.31242 
2035 2 -3.72864 -0.220429 -3.06338 
1589 2 -3.16207 -0.338394 -2.28426 
1206 2 -2.55722 -0.078771 -2.70077 
234 1 -1.50505 -0.422886 -3.53846 
1834 2 -1.9063 0.403398 -3.06485 
799 1 -0.254038 -0.879424 -1.47049 
625 1 0.428196 -0.145507 -2.58452 
499 1 -0.82347 -0.287807 -2.95316 
630 1 -0.279398 -0.429292 -2.16973 
1456 2 0.649773 -0.977697 -3.08979 
1832 2 1.15727 -0.804377 -2.36787 
776 1 1.23859 0.201457 -2.38913 
1502 2 1.88347 -0.596896 -3.07458 
1696 2 2.69822 -0.260891 -2.67257 
846 1 4.03202 -0.593974 -2.71523 
1320 2 3.49188 0.217675 -2.35926 
1680 2 3.92248 -0.0457305 -1.40564 
109 1 5.71622 0.0870929 -3.38167 
1952 2 4.37048 0.333787 -2.06056 
241 1 5.32286 -0.29521 -2.42713 
1986 2 -5.41869 1.45225 -2.63379 
1724 2 -4.61542 1.53904 -2.12043 
912 1 -3.56102 0.377756 -1.69123 
1720 2 -4.71368 1.78331 -3.10687 
900 1 -4.27771 0.669542 -3.32849 
1282 2 -3.88665 1.89235 -2.83235 
613 1 -3.9532 0.694754 -2.50225 
259 1 -2.40894 1.2349 -2.80378 
94 1 -2.93223 0.952796 -2.25126 
189 1 -1.17038 1.53426 -2.336 
1104 2 -0.836797 0.716357 -2.78151 
1386 2 -0.0521262 1.11229 -3.02014 
1893 2 0.826865 1.43965 -3.06116 
1187 2 1.45179 1.98638 -3.57148 
963 1 1.73295 0.528338 -3.056 
1838 2 1.56028 1.56247 -2.50371 
464 1 2.19759 0.491363 -2.01522 
90 1 2.54624 1.05477 -2.83527 
1953 2 4.07312 0.570041 -2.9044 
232 1 3.9163 1.56031 -3.06082 
1654 2 5.75592 1.29204 -3.34215 
1858 2 5.07897 0.760316 -2.78854 
944 1 4.96658 2.03162 -2.81239 
1803 2 5.83677 1.01823 -2.54093 
194 1 5.56314 1.973 -2.07342 
811 1 -5.57877 2.41548 -2.31616 
7 1 -5.28155 2.81442 -3.05916 
926 1 -4.5655 2.73125 -2.58265 
761 1 -5.28992 2.07704 -1.57428 
369 1 -4.38884 3.13003 -3.34676 
276 1 -3.75772 3.10434 -2.47832 
1938 2 -3.25487 2.28183 -2.96496 
1415 2 -2.40272 2.46513 -2.46041 
26 1 -2.97927 3.2598 -1.93172 
1839 2 -2.98486 2.00162 -2.0884 
1689 2 -0.846972 2.97751 -2.42134 
1476 2 -1.47062 2.46257 -2.02959 
719 1 -0.824444 2.07125 -2.91937 
134 1 0.490641 2.45922 -2.78297 
1340 2 2.07094 2.03935 -2.85722 
937 1 1.22318 2.97538 -3.09159 
896 1 1.82464 2.91721 -2.44182 
1642 2 2.82994 2.47572 -3.09048 
1967 2 2.67501 2.07333 -2.16758 
1522 2 3.76561 2.93492 -3.18687 
1461 2 3.35991 2.2492 -2.45635 
1026 2 4.69771 2.61858 -1.34926 
1994 2 4.26655 2.75961 -2.3332 
1333 2 4.98626 3.18418 -2.79911 
1669 2 -4.22051 3.70009 -1.88208 
1278 2 -5.47616 3.93654 -3.27597 
355 1 5.89113 4.44026 -1.81655 
1419 2 -5.08136 3.75481 -2.25765 
1287 2 -4.67283 3.41729 -1.27678 
1325 2 -4.04353 4.36914 -2.29335 
989 1 -3.04512 3.53052 -2.93615 
772 1 -2.30072 3.58571 -2.41069 
1601 2 -3.42656 4.52779 -2.66507 
17 1 -1.86369 4.20344 -2.96489 
733 1 -1.41497 3.90755 -2.31181 
568 1 -0.827682 4.56432 -3.02066 
1616 2 0.100422 3.40192 -2.33063 
1981 2 0.866346 3.87737 -2.70456 
1071 2 1.22733 4.47677 -3.40825 
1997 2 1.39765 3.7404 -1.91583 
394 1 2.23911 3.41737 -3.15031 
448 1 2.91538 3.4015 -2.46507 
1854 2 1.84013 4.25046 -2.68637 
835 1 3.38252 3.93769 -3.28282 
262 1 4.1829 4.0089 -2.83962 
552 1 3.84981 3.64843 -2.22423 
166 1 4.96937 4.35226 -2.59767 
1918 2 -5.58094 5.74329 -2.07696 
952 1 -5.04162 4.94899 -2.58135 
342 1 -4.72476 5.58542 -3.42956 
589 1 -4.41005 5.39597 -2.56712 
295 1 -2.51482 -5.83176 -2.43936 
1008 1 -3.44956 5.73932 -2.53899 
1236 2 -2.10315 5.16995 -3.04392 
119 1 -3.95948 5.40858 -1.99462 
1329 2 -1.62863 5.64339 -3.65053 
1571 2 -1.48574 5.27117 -2.419 
1029 2 -1.02108 5.51586 -3.22955 
1818 2 -0.321605 5.82322 -2.8364 
836 1 -0.274525 4.41137 -2.24633 
652 1 0.961944 5.2583 -3.04254 
736 1 0.513389 4.6604 -2.27703 
490 1 1.22098 5.04773 -2.16887 
187 1 1.21617 4.69822 -1.23745 
1499 2 2.38855 4.68587 -3.16738 
1764 2 2.91555 5.1825 -3.89016 
41 1 1.82786 5.51795 -2.67258 
1126 2 3.02448 4.59543 -2.56664 
461 1 2.53608 5.53094 -2.08587 
1714 2 3.56696 5.18141 -3.22135 
1318 2 4.70561 5.36066 -2.66442 
1090 2 3.9196 5.04563 -2.39093 
1489 2 5.95991 5.98976 -2.87399 
370 1 5.03991 4.57863 -3.46082 
2000 2 5.41945 5.57447 -2.3174 
452 1 5.94924 -5.20797 -1.61945 
724 1 -5.24157 -5.01193 -1.33989 
798 1 -4.47109 -4.5914 -1.64134 
1404 2 -3.26638 -5.53384 -1.35095 
366 1 -3.97098 -4.69796 -1.04505 
1822 2 -4.07656 -5.96705 -1.09817 
1783 2 -2.40684 -5.22921 -1.00739 
1454 2 -2.76035 -5.83031 -0.506291 
1843 2 -2.07206 -5.36969 -0.37423 
337 1 -1.03532 -5.68709 -1.64566 
1106 2 -1.60971 -4.80971 -1.33628 
328 1 0.377471 -4.666 -2.45096 
147 1 -0.00277163 -5.09923 -1.71277 
678 1 -0.239593 -5.56545 -1.02393 
661 1 1.63802 -4.32157 -2.32062 
569 1 2.10281 -4.60374 -1.04342 
1081 2 0.98049 5.66067 -1.16428 
249 1 1.0734 -4.78548 -1.71474 
1199 2 2.40149 -5.40071 -1.66528 
1984 2 1.30819 -5.7144 -1.82899 
2004 2 3.34827 -5.09936 -1.62615 
1749 2 3.71363 -5.26464 -0.582935 
1859 2 4.55512 -4.97061 -0.356092 
802 1 5.39009 -5.56519 -1.04332 
1217 2 -4.95691 -3.93162 -1.11486 
1131 2 -5.67668 -4.30279 -0.677252 
1387 2 -5.40764 -3.74144 -2.07932 
1857 2 -4.06853 -3.51095 -1.11378 
21 1 -3.47828 -4.47417 -1.7176 
844 1 -2.77716 -4.33043 -1.1003 
986 1 -1.30892 -3.59951 -1.07813 
634 1 -0.563028 -3.56645 -0.684873 
816 1 -2.03536 -4.01011 -0.882667 
1878 2 -0.978321 -4.44001 -1.7984 
1613 2 -0.655891 -4.55676 -0.921714 
1896 2 0.0422297 -4.13984 -1.67887 
1263 2 1.27714 -3.37182 -2.1016 
1894 2 0.808435 -3.77557 -1.30633 
1923 2 1.92007 -3.35051 -1.34319 
286 1 3.09659 -4.17788 -1.29532 
1019 1 2.21966 -4.23276 -1.78862 
1985 2 2.39694 -3.48155 -0.671154 
137 1 3.52842 -3.64329 -1.85845 
605 1 4.73851 -3.38366 -1.41891 
385 1 3.90903 -3.74868 -1.10681 
2002 2 5.81916 -4.05031 -1.44862 
2017 2 5.16646 -4.52843 -0.824791 
159 1 4.84704 -3.65473 -0.545277 
275 1 -4.90699 -2.42403 -1.43426 
219 1 -5.43795 -3.03667 -0.804644 
285 1 -4.40629 -2.03257 -2.0666 
58 1 -3.86311 -2.29825 -1.20393 
1442 2 -3.89199 -3.36667 -1.96474 
532 1 -4.35893 -2.60296 -0.628985 
1682 2 -2.19491 -2.45259 -2.23381 
1505 2 -2.4313 -2.77749 -1.45308 
1391 2 -1.71449 -2.67691 -0.871911 
1449 2 -3.15613 -3.25517 -1.20798 
1069 2 -1.4764 -2.25989 -1.60298 
1808 2 -0.772667 -2.36925 -0.991893 
1113 2 -1.06135 -2.61812 -0.245221 
566 1 0.628601 -2.52359 -1.80927 
347 1 0.413406 -2.81287 -0.914217 
1057 2 -0.0410411 -1.96171 -0.643537 
913 1 0.0217708 -3.31917 -0.301065 
703 1 0.998853 -2.83464 -0.263595 
211 1 1.31248 -2.3867 -1.19674 
215 1 1.88468 -2.56577 -0.615045 
1066 2 2.49575 -2.86966 -1.98995 
1947 2 2.81053 -3.02647 -1.16775 
199 1 2.52784 -2.00415 -1.03481 
1708 2 3.56805 -2.56212 -1.61865 
1698 2 4.54947 -2.23397 -1.53159 
1787 2 4.12761 -2.6014 -0.944923 
314 1 5.49617 -3.26109 -0.523927 
734 1 -5.6012 -2.56205 -2.03524 
1978 2 5.47362 -1.85987 -1.28774 
1028 2 4.91645 -2.43946 -0.661111 
1167 2 -5.82493 -1.39953 -2.02856 
1587 2 -5.39034 -1.49951 -1.22681 
1972 2 -3.76677 -0.645076 -1.87295 
1299 2 -4.61903 -0.913964 -1.41386 
1025 2 -3.63362 -0.895018 -0.934484 
1432 2 -2.89534 -0.520902 -1.40851 
917 1 -3.36797 -1.66762 -1.60664 
548 1 -2.43475 -1.46656 -1.84842 
59 1 -1.1727 -1.03691 -1.71746 
468 1 -0.944134 -1.16175 -0.890675 
1819 2 -0.246687 -1.86054 -1.62717 
1916 2 0.796245 -1.59806 -1.14234 
1360 2 1.74581 -1.06381 -1.42299 
377 1 1.86989 -1.96803 -1.65525 
691 1 3.04652 -1.57259 -1.51726 
1897 2 2.7006 -0.704268 -1.04996 
626 1 4.05237 -1.27991 -1.42456 
962 1 3.65 -1.72285 -0.684936 
867 1 4.55081 -0.69004 -2.03223 
198 1 4.79797 -1.25225 -0.780908 
279 1 5.24853 -0.826788 -1.43395 
958 1 -5.15418 -0.247703 -1.22693 
518 1 5.89784 -0.413306 -1.66495 
1468 2 5.93458 0.68072 -1.27857 
876 1 -4.30123 0.216848 -1.53626 
472 1 -4.0905 -0.0579424 -0.709729 
921 1 -3.29722 0.345077 -0.906903 
1098 2 -2.14805 -0.626726 -0.7813 
1507 2 -1.24111 -0.410842 -0.284625 
1761 2 -1.3771 0.331603 -2.32989 
2043 2 -2.10049 -0.144826 -1.83899 
1067 2 -1.43857 -0.193283 -1.28394 
1735 2 -0.772826 0.324553 -1.61531 
447 1 0.563811 -0.253078 -1.72839 
601 1 0.416925 -0.655112 -1.03481 
1213 2 0.0657352 0.656214 -1.39173 
160 1 1.24036 -0.267382 -0.886314 
886 1 1.62126 0.115469 -1.53027 
121 1 1.72767 -0.416138 -0.186874 
1568 2 2.11247 -0.588722 -2.12726 
1314 2 3.12308 -0.377434 -1.76437 
243 1 2.83681 0.724068 -1.48303 
84 1 3.66028 0.698137 -0.925388 
1758 2 3.58245 -0.712131 -0.648048 
2030 2 4.86409 0.228915 -1.35257 
1220 2 5.32036 0.550144 -1.84773 
1564 2 5.45571 0.154997 -0.739076 
1059 2 -4.84791 1.02638 -1.098 
966 1 -4.82363 2.00378 -0.816022 
1508 2 -5.38774 0.977869 -1.7352 
16 1 -5.96054 1.63034 -1.1746 
2038 2 -4.08161 1.30743 -1.21422 
1229 2 -3.43391 1.32724 -0.562355 
1520 2 -3.91148 1.65294 -1.88009 
357 1 -2.60141 0.737256 -1.50052 
1170 2 -3.13625 1.65695 -1.32904 
397 1 -1.84947 1.03794 -2.04281 
115 1 -0.6286 1.7196 -1.82279 
608 1 -0.689563 1.06855 -0.583383 
919 1 -1.17695 1.16464 -1.33678 
2022 2 -0.203131 0.78231 -2.27157 
585 1 -0.109557 2.13283 -2.50689 
660 1 -0.137349 1.68167 -1.08945 
1297 2 0.751162 1.16069 -2.0792 
1860 2 1.34632 1.18891 -1.37284 
1215 2 0.777701 0.760114 -0.820918 
1944 2 1.97991 1.61577 -1.79427 
1158 2 2.30284 1.54858 -1.04873 
1368 2 3.12807 1.96837 -1.32383 
1017 1 3.11499 1.0934 -2.26975 
1866 2 4.11916 2.27365 -0.969246 
104 1 3.72136 1.33702 -1.7166 
110 1 4.44813 1.52898 -2.33179 
351 1 5.50009 1.49363 -0.588878 
920 1 5.05455 1.51365 -1.59017 
516 1 -4.61898 2.48996 -1.74146 
1105 2 5.20726 3.07009 -2.03056 
323 1 -3.50306 2.64866 -1.52668 
460 1 -2.4461 2.87859 -1.0896 
1959 2 -2.23693 2.02323 -1.64666 
696 1 -3.21935 2.40206 -0.56362 
2021 2 -0.958982 2.4468 -1.28461 
1092 2 -1.72906 2.06846 -0.843007 
1756 2 -0.323383 2.98738 -1.76584 
910 1 0.389414 2.08853 -1.69793 
1247 2 0.0837613 3.00315 -1.0152 
823 1 1.02976 2.09852 -1.01103 
945 1 1.11821 2.47571 -2.17141 
747 1 1.6627 2.59972 -1.34373 
828 1 2.84185 2.79227 -0.896139 
143 1 2.31835 2.89336 -1.60608 
181 1 3.28129 3.2765 -1.6697 
1686 2 3.8393 2.4087 -1.75182 
906 1 3.81939 3.30253 -0.994787 
1527 2 5.83636 3.64355 -2.72333 
1825 2 5.68769 2.77947 -1.18694 
1330 2 -5.48511 3.18374 -1.23663 
1554 2 4.91865 2.36268 -0.466262 
974 1 -5.17281 4.72012 -1.87472 
506 1 -5.63791 4.30909 -1.05838 
1992 2 -3.30678 4.20532 -1.67622 
1853 2 -3.67977 3.66319 -1.08736 
1072 2 -5.7859 3.28381 -2.04158 
1348 2 -2.81545 3.86959 -0.880121 
1344 2 -2.38767 4.39769 -1.70292 
1646 2 -1.9913 4.35139 -1.04046 
520 1 -1.82143 3.35735 -1.69314 
111 1 -1.19881 3.60152 -1.01276 
720 1 -1.77001 3.06275 -0.497605 
86 1 -0.701791 3.93836 -1.69161 
1679 2 0.611968 3.34263 -1.57791 
361 1 0.378052 4.45193 -1.53799 
418 1 -0.179781 3.98711 -0.901555 
1968 2 2.18501 4.02398 -1.23931 
1107 2 1.30186 3.55578 -1.14639 
905 1 1.64384 4.30525 0.0920274 
1428 2 2.4992 4.25847 -2.04899 
1405 2 2.52584 3.68537 -0.58186 
1913 2 3.05067 4.13259 -1.3193 
1868 2 3.54948 4.48927 -1.88858 
1178 2 4.12665 4.55497 -1.14963 
432 1 4.58371 3.85728 -1.92978 
582 1 5.30905 3.98684 -1.5268 
1362 2 -4.85125 -5.90804 -1.67652 