ITEM: TIMESTEP
48500
ITEM: NUMBER OF ATOMS
2048
ITEM: BOX BOUNDS pp pp pp
-5.9353507891147013e+00 5.9353507891147013e+00
-5.9353507891147013e+00 5.9353507891147013e+00
-5.9353507891147013e+00 5.9353507891147013e+00
ITEM: ATOMS id type x y z 
1007 1 -5.06396 -5.54449 -5.68261 
993 1 -5.1536 -5.83706 -4.79237 
1677 2 -5.03864 -4.48737 -5.17322 
181 1 -4.21577 -5.6212 -5.07037 
274 1 -3.47619 -5.59394 -4.65881 
14 1 -3.61222 -5.0803 -5.44768 
426 1 -2.91295 -4.69283 5.90801 
1302 2 -2.5797 5.65286 -4.95004 
77 1 -2.15489 -4.55093 -5.58306 
1329 2 -1.37898 -5.66979 -5.08593 
1374 2 -0.0395594 -4.96758 -5.39512 
959 1 0.768264 -5.85912 -5.10971 
1575 2 -0.540654 -5.47491 -4.87688 
1739 2 0.39672 -5.05248 -4.53986 
350 1 0.966233 -5.59564 5.87584 
425 1 1.65161 -5.47956 -5.3645 
1790 2 0.759207 -4.56301 -5.48838 
1503 2 1.82741 -4.16987 -5.38076 
223 1 2.26995 -5.078 -5.73767 
707 1 2.72132 -5.18513 -4.99998 
481 1 3.07775 -4.6823 5.83085 
1114 2 3.98924 -5.41383 -5.74614 
675 1 3.39907 -4.7053 -5.20942 
1704 2 3.42551 -5.96201 -5.36786 
1661 2 -5.86353 -4.8251 -5.50108 
1244 2 4.85494 -5.17764 -5.84314 
1774 2 5.43185 -5.23124 -5.00879 
826 1 -4.68345 -3.31647 -5.34137 
1759 2 -4.10608 -4.27396 -5.34692 
49 1 -5.03491 -3.6808 -4.60653 
1390 2 -4.44567 -4.64999 -4.55306 
1961 2 -3.62323 -4.27938 -4.81171 
1495 2 -2.25555 -3.43815 -5.59297 
1112 2 -2.46642 -3.90579 -4.92129 
738 1 -1.75139 -4.60763 -4.80671 
169 1 -1.66366 -4.142 5.70182 
202 1 -0.835004 -4.47528 -4.32071 
107 1 -1.05045 -4.15534 -5.29281 
855 1 0.81708 -3.37861 -5.24115 
782 1 -0.0156691 -3.64379 -5.56624 
975 1 1.6575 -3.12168 -5.26624 
1081 2 2.36391 -3.83816 5.8827 
1678 2 2.9766 -3.69396 -5.65059 
1745 2 3.64619 -3.55185 -5.04739 
929 1 4.21515 -4.32655 -5.68179 
809 1 5.47799 -4.14909 -4.93183 
283 1 5.11677 -3.91753 -5.73445 
6 1 -5.64744 -3.69958 -5.30284 
1478 2 -5.41297 -2.60922 -4.95918 
1655 2 -4.69432 -2.34733 -4.61167 
1755 2 -5.52974 -2.23193 -5.67016 
450 1 -3.97767 -2.71553 -5.69886 
922 1 -4.08637 -3.20369 -4.70801 
75 1 -3.19627 -2.60971 -5.63381 
595 1 -3.37351 -3.0714 -4.90036 
810 1 -2.54113 -2.57401 -5.14015 
1898 2 -1.60149 -3.16868 -5.11099 
1255 2 -1.19046 -2.94301 -5.7846 
741 1 -1.32981 -1.9928 -5.30727 
1380 2 -0.424865 -2.68584 -5.47762 
1533 2 0.358241 -2.66279 -4.82733 
657 1 -0.70178 -1.95276 -4.74531 
1946 2 1.18952 -2.42694 -4.70729 
108 1 0.922282 -3.14778 5.75142 
1363 2 1.88983 -1.89933 -5.30546 
207 1 2.66921 -2.98037 -5.02537 
20 1 3.35506 -2.07831 -5.63568 
706 1 1.74987 -2.89436 5.74635 
403 1 4.13022 -2.07906 -5.1064 
1905 2 4.39598 -3.05727 -5.45779 
385 1 3.83742 -1.74168 5.52364 
1491 2 5.58138 -2.8878 -5.20089 
1341 2 4.69718 -3.28138 -4.6085 
37 1 -5.08223 -1.58664 -3.81276 
748 1 -5.10103 -1.36252 -4.66849 
592 1 -4.78008 -0.557199 5.50436 
1171 2 -3.83083 -1.72638 -4.97363 
348 1 -4.47424 -0.821933 -5.22377 
1196 2 -4.03502 -1.52609 5.79147 
1442 2 -2.66169 -1.43514 -4.70998 
1975 2 -2.19466 -1.22939 -5.37427 
1243 2 -2.74838 -1.00534 5.78176 
1569 2 -3.18974 -1.40106 -5.51933 
313 1 -0.920743 -1.49304 5.93186 
1911 2 -1.3785 -0.76247 -5.56855 
2041 2 -0.218511 -0.727043 -4.2989 
844 1 -0.171667 -1.5058 -5.3777 
875 1 0.075892 -1.846 -4.40604 
74 1 0.571067 -1.24818 -4.98344 
35 1 1.73042 -1.02239 -4.68808 
1213 2 1.06222 -1.96121 -5.62824 
1259 2 2.80615 -1.55987 -5.14502 
916 1 2.4117 -0.578935 -4.92591 
1700 2 2.01402 -1.56802 5.79973 
1698 2 3.53036 -0.860052 -5.77617 
1982 2 4.20719 -0.679425 -5.67764 
1190 2 4.72927 -0.762642 -4.96309 
25 1 4.68713 -1.64842 -5.7688 
66 1 5.82687 -1.43003 -5.34207 
784 1 5.00002 -1.89087 -4.93079 
1083 2 -4.68658 0.36674 -5.38849 
1184 2 -5.41258 -0.130631 -4.98741 
833 1 -4.10849 -0.351016 -5.87798 
1964 2 -3.85977 0.284699 -4.60063 
1256 2 -2.92315 0.700122 -5.21142 
543 1 -3.28777 -0.370247 -5.42949 
374 1 -1.75956 0.140492 -5.29475 
419 1 -2.54077 0.0268108 -5.89619 
1345 2 -2.03583 -0.902559 5.51069 
1713 2 -0.331803 -0.475014 -5.12061 
2032 2 0.588406 0.0902181 -5.53804 
1006 1 0.625463 -0.938909 -5.82666 
1271 2 1.05441 0.506185 5.76614 
1644 2 1.35875 0.135176 -5.08277 
830 1 1.38911 -0.800449 -5.64127 
31 1 3.06802 -0.0811029 -5.68064 
1220 2 2.5882 0.630468 -5.25036 
163 1 4.77753 0.549864 -5.5963 
900 1 3.88369 0.341501 -5.57775 
1634 2 5.0165 -0.330513 -5.76895 
872 1 5.01102 0.481615 -4.71087 
1250 2 5.52241 -0.465712 -4.96717 
824 1 -4.95209 1.11029 -4.60556 
903 1 -4.65919 1.77474 -5.9612 
310 1 -4.44541 1.49965 -5.13115 
960 1 -5.36473 1.10607 -5.56341 
2048 2 -3.78686 0.618371 -5.45302 
94 1 -3.63446 1.47765 -4.70372 
1498 2 -2.2256 0.823801 -4.63856 
1775 2 -2.41622 1.28103 -5.53343 
1165 2 -1.79342 1.69032 5.79826 
1797 2 -1.52491 1.23037 -4.70225 
1212 2 -1.28349 1.60384 -5.53209 
73 1 -0.950127 0.752935 5.8986 
594 1 0.525444 1.47002 -5.89727 
829 1 -0.105665 0.945973 -5.44816 
551 1 0.730282 0.977805 -4.95362 
570 1 1.48759 2.0175 5.63967 
451 1 1.40309 1.58551 -5.45433 
1468 2 1.82185 0.654572 -5.68048 
1500 2 3.34247 1.10878 -4.93147 
1529 2 2.64737 1.10125 5.81447 
482 1 2.19127 1.88115 -5.55134 
439 1 2.59583 1.81413 -4.78679 
1502 2 3.45926 1.35074 -5.81065 
1952 2 4.11287 1.19011 -4.52723 
1986 2 4.19801 1.52914 -5.45608 
469 1 5.89224 0.777549 -4.56573 
138 1 5.6804 0.870977 -5.47251 
1505 2 5.1201 1.75692 -5.27236 
1204 2 -5.38024 1.9649 -4.51803 
1800 2 -4.80315 2.41079 -4.87602 
1288 2 5.62007 1.79152 -4.47726 
1512 2 -4.04465 2.44518 -4.31262 
1336 2 -3.76647 2.79651 -5.10091 
164 1 -3.73832 1.9411 -5.56815 
852 1 -2.93239 2.50541 5.7771 
1772 2 -3.03695 3.04041 -4.61387 
956 1 -2.81018 2.00203 -5.0887 
815 1 -2.31684 2.46566 -5.49728 
727 1 -1.32155 2.86565 -5.4061 
990 1 -0.588767 3.30777 -5.78318 
262 1 -0.50705 3.05106 -4.80993 
1322 2 -0.628385 1.87574 -4.94574 
1222 2 0.0985362 2.28866 -5.33432 
1653 2 0.620879 2.61808 5.88112 
1085 2 2.32222 3.35721 5.89763 
869 1 3.2452 2.35346 -5.28873 
1065 2 2.48218 3.13727 -5.16093 
96 1 4.09279 2.49703 -5.05459 
97 1 4.63657 2.94905 -5.65422 
1603 2 -5.72611 2.04148 -5.32308 
171 1 -5.89914 3.20585 -4.99543 
235 1 5.24405 2.90743 -4.99886 
762 1 4.6567 2.50411 -4.54459 
882 1 -5.05559 3.54043 -4.89751 
755 1 -5.70475 3.74546 -5.74398 
1376 2 5.46145 4.02773 -4.61729 
1794 2 -3.19126 3.42474 -5.51513 
733 1 -4.22982 3.87322 -4.695 
901 1 -3.06236 4.50727 -5.02005 
509 1 -4.61618 4.01054 -5.59162 
1824 2 -2.36123 3.74872 -5.32453 
1378 2 -1.98884 3.32211 -4.59133 
165 1 -1.55988 4.5622 -4.41807 
1607 2 -0.64803 4.4055 -5.68849 
1142 2 -1.40395 3.98381 -5.41559 
1756 2 -1.92868 4.07861 5.65898 
417 1 0.208921 3.39791 -5.26303 
1071 2 0.75377 4.48826 -4.5503 
1042 2 -0.39515 4.24675 -4.97003 
884 1 0.823739 3.83034 -5.84368 
407 1 1.04428 3.46977 -4.87074 
1016 1 2.31124 4.42534 -5.25985 
1245 2 3.29567 3.40224 -4.9036 
255 1 3.14359 4.58045 -5.62932 
1420 2 4.03488 3.72737 -5.22504 
1395 2 4.21348 4.10068 5.83159 
1342 2 3.12261 3.53504 -5.6896 
1479 2 5.03467 4.35621 -5.79743 
742 1 5.85885 5.77295 -5.46825 
1697 2 -5.00563 5.05 -5.29043 
1311 2 5.81199 4.49173 -5.20436 
1688 2 -4.24821 5.38891 -5.40575 
1526 2 -3.43544 5.58615 -5.55869 
1278 2 -3.41024 5.38225 -4.60825 
2029 2 -1.92023 5.83907 -4.56098 
1801 2 -2.94602 5.05765 -3.87162 
45 1 -2.06578 4.86826 -5.08858 
323 1 -1.36036 5.10857 -5.36282 
120 1 -0.781152 5.52474 -5.61465 
729 1 -0.180801 5.39708 -4.76594 
1499 2 0.401642 4.57771 -5.23658 
496 1 0.117707 5.92339 -5.75826 
1974 2 0.979962 5.1117 -5.83108 
1955 2 1.9845 5.50259 -5.54642 
1875 2 2.00593 5.05947 -4.5583 
1405 2 2.72904 5.49649 -4.99964 
318 1 3.80642 5.13953 -5.72902 
927 1 4.32454 4.91246 -5.03146 
175 1 4.42576 5.48308 5.58285 
201 1 4.7764 5.27957 -5.51407 
1090 2 -4.65327 -5.02958 -3.7687 
1047 2 -4.05038 -5.18688 -3.08113 
1103 2 -5.51215 -5.39998 -3.48846 
229 1 -3.67979 -5.82107 -3.76306 
1239 2 -3.83337 -4.60318 -4.01247 
918 1 -4.45405 -5.88422 -4.25155 
1699 2 -3.3608 -4.64382 -3.37115 
412 1 -2.68649 -5.14919 -5.00551 
5 1 -2.81567 -5.42915 -3.87787 
91 1 -2.15024 -5.10268 -4.14925 
1419 2 -1.10569 -5.92082 -4.28646 
902 1 -1.36872 -5.0267 -3.86737 
1211 2 -0.524945 -5.94484 -3.34084 
1191 2 -0.197227 -5.47921 -4.08729 
1151 2 1.35158 -4.6544 -4.70364 
1353 2 1.2354 -5.48642 -2.84955 
1429 2 2.0428 -4.63305 -4.17617 
931 1 3.19343 -5.41659 -4.3569 
340 1 2.29469 -5.6642 -4.29266 
2016 2 4.61572 -5.61065 -5.02541 
723 1 3.93404 -4.91259 -4.56885 
64 1 4.8726 -4.66404 -4.23076 
1714 2 -5.42359 -4.94538 -4.45533 
1307 2 5.69977 -5.3344 -4.17969 
511 1 5.54328 -4.59605 -3.56283 
516 1 -5.16116 -4.036 -3.62455 
40 1 -4.37159 -3.63569 -4.02564 
2034 2 -3.04694 -4.39871 -4.25335 
242 1 -4.15311 -3.89294 -3.32207 
967 1 -3.50735 -3.34024 -4.00406 
339 1 -2.92357 -3.29115 -3.50736 
1425 2 -2.55063 -4.28866 -3.30727 
1931 2 -2.26586 -4.07166 -4.06581 
1630 2 -1.56011 -3.60183 -4.36474 
1559 2 -1.54555 -4.06954 -3.49816 
1711 2 -0.772768 -3.58744 -3.66884 
1922 2 0.0336801 -3.40707 -3.35929 
765 1 -0.40443 -4.70189 -3.52835 
497 1 -0.209189 -4.05922 -4.75192 
260 1 0.86324 -3.77827 -4.55394 
203 1 0.197464 -4.1824 -4.02212 
938 1 1.59828 -3.71708 -3.80964 
1 1 2.08767 -3.31016 -4.46348 
2004 2 2.60544 -4.12462 -4.89192 
1747 2 2.75741 -4.39384 -3.93409 
547 1 2.37754 -3.56023 -3.39985 
1344 2 3.32782 -4.07724 -4.31522 
429 1 4.66731 -4.46349 -4.99494 
1260 2 3.81715 -4.1163 -3.5089 
1984 2 4.27251 -3.83486 -4.33408 
102 1 -5.88286 -4.06559 -4.11804 
1609 2 4.85138 -3.618 -3.77812 
1813 2 5.452 -2.90183 -4.40043 
1705 2 5.79804 -3.18848 -3.48482 
1750 2 -4.77776 -2.59442 -3.79019 
1129 2 -5.35116 -3.21068 -3.06918 
1588 2 -3.8239 -2.20591 -4.18601 
1924 2 -4.0676 -2.55941 -3.43001 
1664 2 -3.11394 -2.01765 -4.27904 
465 1 -1.97225 -2.27033 -4.69155 
151 1 -2.76705 -3.10591 -4.39402 
196 1 -2.04753 -2.76653 -3.9367 
1817 2 -2.97631 -2.22106 -3.49575 
773 1 -1.06725 -2.41246 -4.0885 
1991 2 -0.623354 -3.08521 -4.59154 
504 1 -1.21506 -2.77649 -3.12553 
1881 2 0.144122 -3.03543 -4.08821 
1381 2 0.817832 -3.14554 -3.11912 
150 1 -0.369781 -2.34254 -3.48307 
1878 2 1.09155 -2.87437 -3.9698 
1326 2 1.95053 -2.49606 -3.6089 
819 1 2.8851 -3.11318 -4.10157 
1581 2 2.71212 -2.23967 -3.62325 
1197 2 2.1134 -2.14403 -4.51221 
485 1 3.4081 -2.63826 -4.74648 
1001 1 3.6201 -3.04584 -3.59188 
999 1 4.12329 -2.51779 -4.29484 
1937 2 -5.48266 -2.89696 -4.14046 
117 1 5.59073 -1.90582 -3.89423 
948 1 4.73741 -2.15727 -4.04065 
344 1 -5.86759 -1.6273 -4.58599 
587 1 -5.6291 -2.03156 -3.41406 
1978 2 -5.53505 -0.684015 -3.41561 
205 1 -3.47697 -0.794129 -4.82781 
212 1 -4.1455 -1.10539 -4.28747 
499 1 -3.45884 -1.08163 -3.72698 
252 1 -4.26687 -1.41784 -3.47001 
214 1 -2.71894 -0.490823 -4.22634 
1097 2 -1.97442 -1.45885 -4.19058 
1057 2 -0.917824 -1.36036 -3.9796 
1851 2 -1.48591 -1.62615 -3.5489 
1414 2 -1.23356 -0.949412 -4.76589 
1867 2 -0.859507 -1.54039 -2.89622 
691 1 0.563798 -1.94698 -3.31072 
1963 2 0.599144 -0.705352 -3.83801 
677 1 1.05001 -1.48559 -4.2448 
427 1 2.01687 -1.07652 -3.90034 
241 1 1.40464 -1.73582 -3.47765 
986 1 2.68292 -0.753277 -4.13937 
1923 2 2.95838 -1.78318 -4.42117 
1257 2 3.79312 -1.11058 -5.03818 
1894 2 3.79269 -1.38512 -4.14228 
1148 2 5.53564 -0.793839 -4.2462 
1615 2 4.61386 -1.13382 -4.14242 
1037 2 -5.47902 -0.403822 -4.25114 
1939 2 -4.68586 -0.0384755 -4.51085 
1350 2 -4.57789 -0.273911 -3.60765 
686 1 -5.00777 0.500138 -3.09453 
299 1 -5.8256 0.451028 -3.8388 
1960 2 -3.79148 0.000212336 -3.79199 
1876 2 -3.06618 0.544819 -4.12455 
505 1 -2.60052 -0.167357 -4.98168 
1030 2 -3.03236 0.168647 -3.33393 
1104 2 -2.05861 0.246089 -2.80655 
291 1 -1.78698 -0.203832 -4.45243 
776 1 -0.738051 0.0795226 -4.09117 
886 1 -2.17296 -0.716611 -3.52459 
615 1 -0.917613 0.455349 -5.08851 
1021 1 0.0153417 0.609627 -4.50872 
1673 2 0.479123 -0.385357 -4.70314 
1858 2 2.0469 0.343608 -4.63757 
1360 2 1.25371 -0.669013 -3.01826 
1832 2 1.29207 -0.0541065 -4.147 
1784 2 2.19543 0.0657652 -3.62903 
715 1 3.38877 -0.185369 -4.5874 
983 1 3.6167 -0.436713 -3.53441 
125 1 4.10612 0.097765 -4.77003 
195 1 4.31985 -0.148352 -4.01245 
708 1 5.18236 0.0834177 -3.89051 
494 1 -5.07815 0.79602 -3.87293 
1861 2 -5.47433 1.65144 -3.50034 
921 1 -4.10269 0.721663 -3.21073 
240 1 -4.21915 1.17486 -3.97767 
613 1 -3.05808 1.62897 -4.17555 
982 1 -3.42223 1.17045 -3.52177 
552 1 -2.27238 1.90881 -4.3202 
2001 2 -2.12823 0.539213 -3.84825 
828 1 -1.70164 1.87885 -3.67863 
1821 2 -0.738051 1.40691 -4.20716 
1298 2 -1.36519 0.778576 -3.88912 
1967 2 -0.0214637 1.381 -3.60885 
1962 2 0.192319 1.89932 -4.55976 
749 1 0.937003 0.881194 -4.1693 
827 1 1.75658 1.25696 -4.73732 
1643 2 0.874738 1.96085 -3.86288 
95 1 0.922935 0.526961 -3.35611 
517 1 1.74599 1.17786 -3.65207 
1314 2 2.97134 0.662705 -4.23919 
726 1 2.49993 1.4883 -3.92263 
188 1 3.45174 1.69765 -3.53294 
1470 2 4.89311 1.38339 -4.26757 
1225 2 3.72564 0.731349 -3.84639 
1320 2 5.61238 1.42346 -3.61859 
1564 2 4.56311 1.01857 -3.61393 
1068 2 5.32245 0.989438 -3.05632 
1000 1 -5.45244 3.115 -4.22902 
702 1 -5.61932 2.68526 -3.48991 
739 1 5.57391 2.36807 -3.19667 
1092 2 -4.51764 2.06541 -3.65067 
1282 2 -3.29826 2.57639 -3.87009 
1415 2 -2.4276 2.88863 -3.86816 
56 1 -1.78572 2.24849 -4.83317 
39 1 -1.10131 2.49415 -4.2241 
1054 2 0.871493 2.35293 -4.85002 
76 1 -0.847291 2.11454 -3.50037 
716 1 -0.204478 2.58715 -3.95216 
448 1 0.610893 2.84605 -3.49702 
1834 2 1.62537 2.27838 -4.31867 
143 1 0.437154 3.1184 -4.31895 
1681 2 1.72231 2.66499 -5.20964 
1999 2 2.45419 2.71546 -4.10348 
1158 2 3.19617 2.9694 -3.8378 
178 1 3.52875 2.05288 -4.51775 
447 1 4.10988 2.14993 -3.9845 
1461 2 4.21859 3.19036 -3.45092 
947 1 5.48972 2.83572 -4.13192 
596 1 4.95327 2.35965 -3.74561 
1670 2 -5.23577 4.54464 -4.83275 
1349 2 -4.79803 4.4526 -3.9983 
1214 2 -5.59406 4.22822 -4.2334 
123 1 -3.40908 3.86753 -4.31145 
396 1 -4.5654 3.42614 -4.15783 
298 1 -3.74756 3.50115 -3.5762 
631 1 -2.81259 3.78621 -3.49825 
204 1 -2.34224 4.34726 -4.28008 
418 1 -1.90104 4.11887 -3.45365 
1304 2 -1.10841 3.7437 -4.55128 
1938 2 -1.5935 3.24962 -3.71139 
17 1 -0.699586 4.41253 -3.04488 
1170 2 -0.750916 3.61836 -3.77366 
1997 2 -0.0281672 4.0514 -4.22832 
1268 2 -0.13894 3.5978 -3.2961 
208 1 1.85039 3.89088 -4.59896 
1869 2 0.733591 4.09688 -3.63215 
896 1 1.24985 3.36885 -4.10956 
690 1 2.74609 4.11102 -4.45793 
370 1 4.12405 4.44633 -4.02755 
835 1 3.50384 4.42677 -4.73278 
1274 2 3.98434 3.41499 -4.33187 
1640 2 4.77539 3.552 -4.18173 
440 1 4.81411 4.49378 -3.47785 
1969 2 4.83499 3.92868 -5.04327 
1095 2 5.71811 3.88864 -3.80518 
582 1 -4.94397 5.5696 -3.78862 
662 1 -5.47078 5.02899 -3.22162 
1662 2 -4.29026 4.90529 -4.58751 
805 1 -4.22666 5.55005 -3.22215 
1207 2 -3.83092 4.7383 -3.84837 
1088 2 -2.22099 5.40322 -4.01438 
1138 2 -1.52662 5.585 -3.47446 
1636 2 -2.15595 5.00779 -3.10199 
797 1 -0.81444 5.05237 -4.48438 
1527 2 -1.09224 5.29306 -2.76147 
26 1 -1.09468 4.67648 -3.6907 
638 1 0.552801 5.65193 -4.33498 
925 1 -0.221699 5.12094 -3.87301 
1013 1 1.4713 -5.84243 -4.45483 
1926 2 1.23734 5.12325 -5.0443 
736 1 1.47285 5.61899 -3.58283 
1854 2 1.30043 4.6224 -3.98427 
1145 2 3.33587 5.29837 -4.31984 
1847 2 2.49358 5.06052 -3.88861 
1764 2 3.27394 5.2452 -3.5423 
342 1 4.78023 4.90396 -4.31385 
1846 2 3.96365 5.87404 -4.67781 
432 1 5.4691 5.36925 -4.78855 
1192 2 4.78224 -5.76041 -4.0701 
166 1 5.65242 5.00378 -3.86197 
399 1 -5.67613 5.41298 -4.2065 
284 1 -5.26037 -4.68534 -2.18504 
1318 2 -4.98064 -5.53534 -2.77237 
1227 2 -4.04545 -5.5079 -2.11713 
1203 2 -3.3401 -5.04992 -2.55592 
227 1 -2.6744 5.89052 -2.50781 
1848 2 -2.47662 -4.84772 -2.44958 
1285 2 -2.02112 -5.01847 -1.69091 
1014 1 -2.11134 -5.37768 -3.29177 
467 1 -1.53448 -5.49533 -2.51697 
672 1 -1.07405 -4.99773 -3.08426 
85 1 -1.93589 5.84167 -2.05923 
30 1 -0.540557 -5.12326 -2.36026 
1417 2 0.981405 -5.17995 -3.67631 
286 1 0.179863 -4.92952 -2.06051 
1585 2 0.366515 -5.7333 -3.24284 
1818 2 1.9966 -5.31979 -2.48532 
1490 2 0.611794 -5.84559 -2.25425 
1338 2 1.93618 -4.88343 -3.37877 
1236 2 2.74799 -4.96206 -2.4765 
487 1 3.49098 -5.47658 -3.61453 
2017 2 3.00652 -4.71437 -3.21825 
43 1 4.09503 -5.04822 -3.66048 
857 1 4.17699 -5.59954 -2.83479 
442 1 3.43935 -5.76668 -2.73962 
684 1 5.60889 -5.02617 -2.12354 
542 1 4.81996 -5.11388 -3.11009 
1782 2 -5.96101 -5.79374 -2.83209 
622 1 -4.89906 -4.3457 -2.83308 
955 1 -5.76178 -4.51926 -2.90381 
1995 2 -5.78278 -3.58894 -2.33178 
1319 2 -4.84975 -3.44949 -2.25367 
273 1 -3.50743 -3.74895 -2.89741 
353 1 -3.98369 -4.21813 -2.48161 
1046 2 -1.71503 -4.39559 -2.70851 
280 1 -2.69855 -3.73257 -2.50916 
724 1 -3.27454 -4.21649 -2.03187 
398 1 -2.77511 -4.31844 -1.51587 
1748 2 -0.867155 -3.95521 -2.82044 
998 1 -2.19149 -3.7079 -1.66429 
1812 2 -1.44854 -4.41023 -1.73238 
459 1 0.180735 -4.65483 -2.90947 
1896 2 0.0122392 -3.64974 -2.50595 
1973 2 0.791381 -3.37056 -2.1554 
1798 2 1.70849 -3.30526 -2.21865 
277 1 1.71746 -4.08048 -2.93853 
569 1 0.782445 -4.26689 -3.40737 
754 1 1.14355 -4.55164 -2.46458 
981 1 2.59783 -3.93166 -2.4473 
1082 2 3.9143 -4.55078 -2.64049 
1592 2 5.49428 -3.73074 -2.71743 
1528 2 4.69658 -4.00245 -2.93098 
1475 2 -4.6074 -3.01861 -2.99077 
914 1 5.90244 -2.40539 -2.74675 
917 1 -5.29165 -2.41518 -2.21237 
532 1 -4.95934 -1.9669 -2.92354 
2007 2 -3.90219 -2.85196 -2.56058 
636 1 -4.46405 -2.05177 -2.21365 
1537 2 -4.12033 -3.16527 -1.78376 
218 1 -1.99317 -3.19143 -3.02546 
1119 2 -3.27722 -2.418 -2.78166 
1483 2 -2.43591 -1.69987 -3.5546 
411 1 -1.5576 -3.24163 -2.30377 
1908 2 -2.51083 -2.24357 -2.71216 
236 1 -0.380371 -2.59698 -2.76327 
246 1 -0.705665 -2.92704 -2.10937 
11 1 0.498909 -2.32613 -2.47038 
1066 2 1.66068 -2.94477 -2.99192 
566 1 1.51439 -1.95739 -2.72329 
1580 2 3.56655 -1.86185 -3.35765 
1942 2 2.97842 -2.28438 -2.79892 
416 1 3.18394 -3.36148 -2.99333 
245 1 3.86155 -3.47282 -2.4758 
1947 2 3.78918 -2.21784 -2.58485 
928 1 4.39605 -2.90555 -3.37759 
1163 2 4.44752 -1.87144 -2.28852 
140 1 5.59626 -2.82691 -2.03962 
161 1 5.07759 -2.58176 -3.04185 
136 1 4.84319 -3.15442 -2.22356 
1156 2 4.11663 -2.51616 -1.72914 
1279 2 -5.11947 -0.975425 -2.60997 
2035 2 -5.88276 -1.26358 -2.63034 
717 1 -3.88554 -1.63112 -2.7892 
1893 2 -4.42276 -1.14728 -1.83027 
1792 2 -4.43774 -0.641408 -2.78768 
99 1 -3.66616 -2.00029 -1.79756 
789 1 -3.05199 -1.22779 -2.93118 
121 1 -2.39898 -1.04063 -2.51382 
177 1 -2.88853 -1.5343 -2.15668 
1993 2 -1.76824 -1.99156 -2.77396 
234 1 -1.50074 -0.798509 -2.77604 
1456 2 -0.179244 -1.17405 -3.33661 
1517 2 -0.219071 -1.57687 -2.3017 
1573 2 0.352251 -1.5281 -1.69262 
1568 2 0.428702 -1.08775 -2.71159 
2046 2 1.15575 -1.02804 -2.16794 
106 1 2.20046 -1.37981 -3.02925 
287 1 3.00601 -1.04265 -3.11972 
700 1 2.25112 -1.59734 -2.28038 
421 1 3.13377 -1.35659 -2.13193 
626 1 3.76925 -0.7927 -2.66097 
1167 2 4.24628 -1.46688 -3.32319 
962 1 4.03114 -1.01177 -1.76457 
278 1 4.71525 -0.656549 -1.93967 
1174 2 5.2376 -1.17307 -3.32019 
1337 2 5.1496 -1.60175 -2.52441 
297 1 -5.82924 0.17614 -3.10991 
958 1 -5.57746 -0.0217797 -2.29037 
189 1 -4.73917 0.378656 -2.2743 
1110 2 -3.68949 -0.63657 -1.92154 
1206 2 -3.55295 -0.350562 -2.93246 
32 1 -3.86763 0.601066 -2.31141 
1352 2 -2.87687 -0.481674 -1.69957 
1683 2 -2.8718 -0.0828225 -2.50953 
271 1 -1.3084 -0.471032 -3.48409 
1432 2 -1.82018 0.247283 -2.0087 
1754 2 -1.36737 0.611829 -3.08735 
1830 2 -0.864063 0.515793 -2.30778 
963 1 0.00587751 0.187691 -3.65688 
449 1 -0.494066 -0.157949 -3.01499 
842 1 0.367997 0.25187 -2.76857 
1680 2 1.94004 -0.736865 -2.32126 
625 1 1.15205 0.185696 -2.23689 
1059 2 2.2755 -0.224601 -2.77448 
1229 2 2.98565 0.28965 -3.39019 
145 1 4.3815 -0.387866 -3.11501 
1819 2 3.27092 0.107166 -2.42267 
1803 2 4.055 0.670621 -3.08342 
42 1 5.27275 -0.148856 -2.93649 
518 1 5.4558 -0.389277 -2.15045 
2030 2 4.17204 0.191968 -2.07564 
1572 2 -5.83209 1.1764 -2.73359 
1361 2 -5.06043 1.23761 -2.23704 
1172 2 -4.80067 1.65633 -2.95919 
1983 2 -3.9892 1.69927 -2.45124 
1689 2 -4.45409 1.36309 -1.63072 
124 1 -2.53088 1.48835 -3.52927 
593 1 -2.90204 1.16563 -2.78712 
719 1 -2.24076 1.15203 -2.02645 
183 1 -1.93443 1.53072 -2.89259 
115 1 -0.420509 1.90081 -1.80961 
1550 2 -0.531161 1.01596 -3.01273 
1025 2 0.581595 1.5197 -3.11598 
1444 2 0.148444 1.12717 -2.4611 
885 1 -0.00613316 2.16287 -2.42818 
80 1 1.46491 0.63332 -2.72216 
1884 2 1.08575 1.54368 -2.40107 
90 1 2.1642 0.700822 -2.13044 
401 1 2.97447 0.979578 -1.98796 
382 1 2.37303 1.05377 -3.02674 
408 1 3.09779 1.24131 -2.78471 
731 1 3.79354 1.49927 -2.50092 
232 1 4.64239 1.69475 -2.10224 
1045 2 4.75349 0.600477 -2.5649 
1777 2 5.41798 0.710684 -2.04452 
944 1 -5.13034 2.60458 -2.7265 
920 1 5.92934 2.17069 -2.34061 
751 1 -4.77347 3.03189 -3.49249 
1485 2 -3.74541 2.12079 -3.2308 
224 1 -4.20757 3.07975 -2.92256 
2045 2 -1.9486 2.80229 -3.01702 
1183 2 -2.96291 2.28254 -2.986 
1959 2 -3.18703 2.06223 -2.18664 
520 1 -2.6033 3.25438 -2.20473 
493 1 -1.04271 1.89078 -2.74135 
1175 2 -0.940823 3.10645 -2.9195 
1446 2 -2.13431 2.31682 -2.21903 
2047 2 -1.35871 2.7261 -2.22538 
44 1 -0.187353 2.46007 -3.10402 
394 1 0.72065 2.72059 -2.6389 
1050 2 1.56109 2.16305 -3.43191 
823 1 1.37359 3.19471 -3.17477 
795 1 1.52105 2.8466 -2.22585 
1642 2 2.40849 2.2305 -3.23778 
1825 2 1.84612 1.94374 -2.66798 
1769 2 2.64187 2.13131 -2.39105 
1146 2 4.39789 2.8499 -2.62601 
574 1 4.33209 2.0228 -3.22569 
1786 2 3.29425 2.58402 -2.95025 
1779 2 5.16803 3.0693 -2.61795 
811 1 5.06932 1.81292 -2.6821 
1618 2 5.15925 3.52872 -3.40283 
1562 2 -5.31039 4.11725 -3.35684 
1105 2 -5.66052 3.37349 -2.2321 
1365 2 -4.31352 4.30809 -3.1361 
1335 2 -4.96252 3.8757 -2.63792 
1048 2 -3.60472 4.37946 -2.62404 
568 1 -3.31207 3.40855 -2.78971 
474 1 -2.33077 3.72659 -2.85451 
1023 1 -1.39432 3.96509 -2.79211 
612 1 -0.597525 4.20945 -2.13982 
1267 2 -0.457299 3.18816 -2.2992 
1406 2 0.468372 3.76116 -2.53966 
1625 2 0.263171 3.26759 -1.72078 
1178 2 1.14759 4.07308 -2.883 
1362 2 1.21425 3.73976 -1.90813 
1234 2 2.03897 4.23215 -2.49929 
650 1 2.16179 3.57934 -3.67992 
23 1 2.25841 3.09419 -2.67354 
525 1 3.03066 3.76997 -3.01596 
786 1 3.27348 4.07719 -3.80738 
437 1 3.91639 4.13139 -3.10138 
355 1 5.0501 4.13382 -2.52154 
946 1 5.76164 4.51949 -2.86868 
1072 2 -5.83405 3.60092 -3.00749 
103 1 4.21516 3.67603 -2.21884 
589 1 -5.17318 4.48792 -1.74964 
93 1 -5.34085 4.76651 -2.43199 
1582 2 -5.66516 5.74938 -2.09317 
147 1 -3.64323 5.40028 -2.50405 
974 1 -4.62306 5.19247 -2.63542 
13 1 -4.44333 4.87631 -1.90558 
333 1 -2.90479 -5.84375 -3.30978 
1989 2 -3.03082 4.81466 -3.09253 
326 1 -2.9383 5.39933 -1.79151 
2033 2 -2.64485 4.5545 -2.33599 
1413 2 -1.8241 4.88989 -2.28102 
1510 2 -0.432256 5.78925 -2.4771 
1971 2 -0.961545 5.19455 -2.02264 
41 1 0.0847235 4.81001 -2.95443 
564 1 0.889682 5.05275 -2.5711 
131 1 0.115926 4.59041 -2.07698 
1701 2 -0.0644961 5.44012 -1.81147 
905 1 0.50105 5.21955 -3.54612 
361 1 2.56364 -5.78177 -3.56114 
667 1 1.74748 5.04596 -2.02869 
1612 2 1.86916 4.56641 -3.40813 
1161 2 3.05287 4.77552 -2.97345 
627 1 1.80897 5.37735 -2.75867 
180 1 2.55741 5.72659 -2.76749 
1428 2 4.00656 5.22504 -2.93948 
1719 2 4.79119 5.4704 -3.20109 
1418 2 4.12575 5.54929 -3.83013 
1126 2 5.4856 -5.76731 -3.5035 
1489 2 5.30822 5.43707 -2.37242 
847 1 -5.54838 -5.20246 -1.47521 
1604 2 -4.84825 -5.84327 -1.99411 
153 1 -4.76516 -4.96364 -1.27128 
1807 2 -3.67706 -5.77559 -1.14209 
1534 2 -4.22083 5.82743 -0.45301 
1411 2 -2.64355 -5.41692 -1.18615 
1272 2 -3.06292 -5.81315 -0.409285 
1548 2 -3.14375 -5.41934 -1.81427 
1602 2 -1.47885 -5.06734 -0.951249 
832 1 -1.20324 -5.69143 -1.74399 
1535 2 -0.813453 -4.45492 -1.08128 
678 1 -0.517813 -5.44074 -1.48583 
763 1 -0.734311 5.91268 -0.705364 
934 1 0.0053748 -5.65869 -0.35041 
317 1 0.295074 -5.25922 -1.24695 
1571 2 1.98711 -5.81818 -0.980212 
1957 2 1.47558 -5.67495 -1.82059 
693 1 1.15271 -4.83856 -1.41586 
423 1 1.9937 -4.84268 -1.20012 
1611 2 2.63444 -5.55566 -1.67571 
1742 2 2.80462 -5.69974 -0.795314 
1198 2 3.39262 -5.09869 -1.87833 
1915 2 3.52265 -5.30571 -0.98849 
1765 2 4.40101 -5.11525 -0.965544 
1907 2 5.02272 -4.88466 -0.497081 
130 1 5.6296 -5.53403 -1.33787 
483 1 4.85521 -5.42321 -2.19974 
1232 2 5.41791 -4.55319 -1.13569 
490 1 4.84553 -5.92734 -1.32723 
1201 2 5.90684 -4.05225 -1.7132 
1657 2 -5.72826 -4.44716 -0.809808 
878 1 -4.37976 -4.53369 -1.87358 
2002 2 -5.20209 -3.81365 -1.32844 
524 1 -3.94196 -4.72991 -1.23717 
1737 2 -4.79747 -4.03449 -0.476231 
798 1 -3.89403 -4.87285 -0.282392 
441 1 -2.96867 -4.49182 -0.69287 
659 1 -1.98622 -4.03795 -0.792064 
402 1 -1.24844 -3.2704 -1.46181 
1404 2 -0.73981 -4.15097 -1.90961 
1394 2 0.000578158 -3.94667 -1.42873 
1452 2 0.795609 -3.92269 -1.25957 
1770 2 1.28501 -3.98246 -0.571775 
1209 2 0.0427668 -4.41634 -0.587544 
305 1 1.79536 -4.24206 -1.96017 
976 1 2.65959 -4.38402 -1.61919 
137 1 3.45886 -4.20328 -1.17251 
1637 2 1.60079 -3.47924 -1.3115 
455 1 3.34778 -3.9182 -1.97428 
179 1 4.06398 -4.06529 -0.580348 
311 1 4.31835 -3.62401 -1.43845 
1859 2 4.31267 -4.63111 -1.79255 
2019 2 5.12369 -4.2443 -2.04367 
424 1 4.95726 -3.72694 -0.58876 
661 1 -5.74529 -3.00554 -1.25715 
58 1 -4.92771 -2.49955 -1.37527 
682 1 -3.78617 -2.38711 -1.13814 
548 1 -2.93066 -2.16088 -0.634861 
2010 2 -3.42042 -3.36437 -1.2955 
1545 2 -2.89556 -2.86916 -2.08399 
1321 2 -2.61195 -2.78599 -1.26257 
1723 2 -1.99054 -2.39224 -1.84196 
1252 2 -0.909594 -2.31022 -1.26907 
251 1 -0.377863 -3.13142 -1.04536 
573 1 0.103032 -2.70406 -1.72469 
994 1 0.518012 -2.76705 -1.05748 
705 1 2.04587 -2.06482 -1.5037 
215 1 1.26706 -2.11772 -1.97042 
377 1 1.26705 -2.45338 -1.21617 
1263 2 2.40976 -2.72059 -2.54036 
1128 2 2.39006 -3.01326 -1.72109 
867 1 3.0648 -2.11284 -0.727624 
1641 2 3.31704 -2.75852 -1.87527 
1787 2 3.96037 -2.79412 -0.924084 
475 1 5.21776 -3.35581 -1.38501 
1645 2 4.94885 -2.43856 -0.743053 
1492 2 5.86946 -1.99388 -0.997666 
1725 2 -5.35 -1.34041 -1.82062 
1667 2 5.75408 -1.64326 -1.87739 
1434 2 -5.10129 -1.61852 -0.980341 
198 1 -5.59738 -0.73628 -0.762833 
1098 2 -4.30163 -1.44517 -1.00796 
1310 2 -3.52099 -0.89079 -1.15637 
1760 2 -3.70247 -1.44244 -0.448846 
606 1 -2.95149 -1.883 -1.35881 
951 1 -2.16868 -1.62911 -1.28655 
1216 2 -1.18372 -1.90332 -2.11859 
898 1 -1.89368 -1.079 -1.91802 
167 1 -1.31542 -0.987156 -1.39004 
1781 2 -0.553875 -1.6598 -1.67315 
714 1 -0.916845 -0.643354 -2.26205 
1682 2 0.962872 -1.50375 -1.15059 
1804 2 1.78884 -1.10737 -1.28829 
1266 2 1.60964 -1.39994 -0.555103 
116 1 2.90795 -1.83891 -1.51704 
1584 2 2.58791 -0.885851 -1.12842 
977 1 3.73564 -1.6757 -1.26804 
375 1 4.61649 -1.12114 -1.14823 
1237 2 4.94459 -2.16012 -1.51543 
703 1 5.44178 -0.980143 -1.28928 
489 1 -5.81301 -0.385372 -1.43691 
910 1 -4.73811 -0.560489 -0.700534 
692 1 -4.86428 -0.085409 -1.49824 
301 1 -3.93234 -0.238339 -0.656961 
561 1 -4.01063 0.251569 -1.44803 
1031 2 -2.62824 -0.869705 -0.921334 
134 1 -3.08721 0.430807 -1.11827 
1589 2 -2.01043 -0.142815 -1.3855 
1972 2 -1.2004 0.299546 -1.37005 
160 1 -0.00332349 -0.313247 -2.19054 
1297 2 -0.388152 0.177477 -0.729251 
1826 2 -0.27192 0.559957 -1.63509 
243 1 0.328249 -0.760466 -1.17461 
895 1 1.63721 0.163246 -1.49444 
430 1 1.05355 -0.442998 -0.600174 
783 1 0.718041 -0.161772 -1.6495 
1659 2 2.57156 -0.297255 -2.02181 
50 1 2.5615 0.614552 -1.2366 
1916 2 3.20439 -0.321131 -1.48918 
1921 2 4.07982 -0.143241 -1.20222 
194 1 3.40886 0.596528 -1.13198 
1679 2 3.37982 -0.718345 -0.707419 
1953 2 4.86304 0.0540003 -0.697843 
1139 2 5.01726 0.319358 -1.44635 
1724 2 5.8108 0.371106 -0.837574 
1654 2 -5.69219 0.821968 -1.66294 
1839 2 -5.10235 0.916694 -1.12691 
191 1 -5.69854 1.77479 -1.02411 
1720 2 -4.14837 1.06258 -0.83101 
1727 2 -3.33944 1.32975 -0.670497 
1247 2 -2.51784 1.67713 -0.69291 
660 1 -3.08357 0.760153 -1.93985 
2021 2 -3.57734 1.51362 -1.48946 
744 1 -2.34547 0.841873 -1.24566 
259 1 -1.27599 1.47112 -1.99753 
911 1 -1.61691 1.26918 -1.25129 
192 1 -0.589005 1.44593 -1.078 
747 1 0.199625 1.80376 -1.0374 
1436 2 0.384677 0.452091 -0.970202 
1187 2 0.653035 0.982528 -1.63861 
1149 2 1.57499 1.32035 -1.54639 
1712 2 1.39584 0.920426 -0.635813 
1994 2 2.4699 1.77328 -1.62848 
1368 2 2.18121 1.26444 -0.622862 
1866 2 3.29905 1.93365 -1.22101 
837 1 3.71173 1.20891 -1.73563 
101 1 3.95999 0.89098 -0.668185 
7 1 5.44045 1.71633 -1.65788 
858 1 4.60639 1.20242 -1.38553 
761 1 -5.08395 2.31939 -1.91604 
446 1 -4.21904 2.65981 -2.13639 
312 1 -4.63359 2.22656 -1.12226 
1554 2 -5.51508 3.02453 -1.23761 
460 1 -3.93626 2.68854 -1.28588 
381 1 -3.40933 3.06985 -2.02324 
1668 2 -2.53757 2.03273 -1.44507 
772 1 -3.08185 2.88969 -1.11882 
294 1 -2.41287 3.30125 -1.50618 
1732 2 -0.601785 2.76055 -1.73451 
1135 2 -1.83015 2.02837 -0.599801 
1981 2 -0.906313 2.46707 -0.752689 
2023 2 -1.51936 2.47125 -1.34387 
919 1 0.71737 2.32693 -1.814 
1294 2 -0.123264 2.80015 -1.11503 
653 1 1.56217 2.38404 -1.43415 
906 1 0.986032 1.96459 -0.785669 
256 1 2.47369 2.65834 -1.09436 
258 1 2.3393 2.98923 -1.90873 
379 1 3.42367 3.24263 -1.49859 
2020 2 3.5864 2.51722 -2.06234 
1330 2 4.1192 2.12691 -0.929428 
506 1 3.99342 3.03232 -0.331274 
2039 2 4.43824 2.5041 -1.59411 
1977 2 5.46581 2.92114 -1.85977 
1686 2 5.19133 2.6637 -1.1354 
1627 2 -5.83512 2.75815 -0.554804 
1333 2 -4.83978 3.50472 -1.83775 
679 1 -5.61529 4.1092 -1.0954 
1439 2 -4.07568 3.89973 -2.13168 
1757 2 -2.79894 4.24161 -0.814983 
1619 2 -3.74829 3.79241 -1.15581 
1056 2 -3.20764 4.23158 -1.69364 
1651 2 -2.34385 3.96647 -0.161456 
720 1 -1.76413 3.66556 -2.04075 
966 1 -1.71435 3.4224 -0.944126 
438 1 -0.962548 3.65401 -1.45195 
1646 2 -1.66232 4.37384 -0.606227 
871 1 -0.158654 3.99049 -1.1518 
461 1 -0.744996 3.54531 -0.601033 
985 1 0.607311 4.23761 -0.879244 
1109 2 1.19336 3.34951 -1.07378 
349 1 1.34758 4.45331 -0.566928 
1730 2 2.87732 4.5209 -2.24285 
1621 2 2.05339 4.00068 -1.69383 
1423 2 3.43426 4.12493 -0.903839 
470 1 3.22804 3.43114 -2.27985 
952 1 4.35995 3.37622 -1.25607 
2015 2 4.43192 4.64471 -1.26093 
774 1 5.5192 3.83717 -1.14272 
119 1 5.7986 4.31868 -2.02665 
510 1 4.95227 3.94104 -1.73435 