ITEM: TIMESTEP
49500
ITEM: NUMBER OF ATOMS
2048
ITEM: BOX BOUNDS pp pp pp
-5.9357996922829441e+00 5.9357996922829441e+00
-5.9357996922829441e+00 5.9357996922829441e+00
-5.9357996922829441e+00 5.9357996922829441e+00
ITEM: ATOMS id type x y z 
1007 1 -4.83025 -5.47767 -5.74766 
1661 2 -5.74633 -4.80012 -5.82989 
181 1 -4.27479 -5.55054 -5.08946 
14 1 -3.78885 -5.17681 -5.581 
1029 2 -2.3439 -5.73798 -5.67859 
1329 2 -1.36936 -5.57024 -5.38975 
2029 2 -1.93806 5.92341 -4.8812 
1374 2 0.111924 -4.86573 -5.15426 
1790 2 0.602689 -4.45474 -5.79721 
1551 2 -0.508347 -4.89672 -5.70401 
959 1 1.12977 -5.70444 -5.08021 
425 1 1.77268 -5.32298 -5.43957 
707 1 2.58382 -5.16496 -5.07832 
340 1 1.88243 -5.924 -4.54306 
1114 2 4.18247 -5.71204 -5.48927 
675 1 3.23355 -4.65194 5.89324 
2016 2 3.68165 5.81144 -4.90147 
723 1 3.63532 -5.00801 -4.44288 
1244 2 4.96725 -5.46428 -5.16006 
1774 2 5.73532 -5.1287 -4.98496 
1677 2 -5.31898 -4.81807 -5.1592 
49 1 5.93866 -3.85633 -5.27494 
40 1 -5.66968 -3.89863 -4.45711 
1759 2 -4.38045 -4.19672 -5.56189 
1961 2 -3.97749 -4.44429 -4.75859 
922 1 -4.79546 -3.58328 -4.74324 
1472 2 -3.53332 -3.7595 -5.53574 
426 1 -2.62552 -4.67975 -5.29812 
1112 2 -2.957 -3.88632 -4.75867 
412 1 -1.82404 -4.45093 -5.79469 
2034 2 -3.39105 -4.43517 -4.28132 
1630 2 -2.13031 -3.78807 -4.50104 
77 1 -0.969242 -3.97461 -5.59432 
738 1 -1.6117 -4.62224 -4.92757 
107 1 -0.261094 -3.99521 -4.94561 
782 1 -0.432373 -3.54121 5.774 
1503 2 1.98548 -4.1067 -5.37675 
855 1 0.718422 -3.04306 -5.958 
1151 2 1.12841 -4.51522 -5.24828 
1678 2 3.05567 -3.68286 -5.68714 
1344 2 2.75138 -3.93436 -4.97129 
1745 2 3.80938 -3.63151 -5.20434 
929 1 3.37618 -4.90926 -5.21051 
809 1 4.51238 -4.55262 -4.67671 
283 1 4.19542 -4.56057 -5.54451 
6 1 5.17752 -4.22144 -4.58 
1018 1 5.10076 -4.20137 -5.44386 
826 1 -5.1983 -3.4304 -5.42627 
1478 2 -4.89488 -2.58816 -4.31892 
1755 2 -5.39806 -2.49601 -5.08365 
75 1 -3.24936 -2.51211 -5.69808 
595 1 -4.1707 -2.97058 -5.32863 
1465 2 -4.91637 -1.94221 -5.54863 
1495 2 -2.38436 -3.33774 -5.38001 
810 1 -2.53176 -2.40159 -5.11493 
151 1 -3.39734 -2.89532 -4.86965 
1898 2 -1.60106 -3.31354 -5.11915 
1255 2 -1.11773 -2.95537 -5.59477 
465 1 -1.84145 -2.41598 -4.5641 
1380 2 -0.30891 -2.61661 -5.47861 
1533 2 0.462106 -2.51945 -4.93492 
975 1 1.95206 -2.85021 -5.54874 
1213 2 1.63112 -1.91217 -4.97301 
1231 2 0.892759 -2.03473 -5.54251 
207 1 2.58785 -2.92336 -4.8809 
939 1 3.04166 -2.60053 -5.65654 
20 1 3.77812 -2.32554 -5.34423 
403 1 4.4775 -2.13369 -4.87734 
1905 2 4.85408 -3.16554 -5.10593 
485 1 3.33739 -2.7705 -4.68934 
1561 2 4.25681 -3.25595 -5.79621 
1491 2 5.10004 -2.73547 -5.86446 
1813 2 5.6554 -2.71488 -5.03596 
748 1 -5.35953 -1.13703 -5.01895 
592 1 -4.82802 -0.665106 -5.63765 
1171 2 -4.48046 -2.07738 -4.88239 
348 1 -4.50103 -1.04931 -4.76703 
1569 2 -3.97018 -1.67101 -5.44892 
1442 2 -3.00685 -1.46041 -4.85577 
741 1 -1.59907 -1.92942 -5.18238 
1057 2 -2.16227 -1.0878 -4.92879 
1414 2 -2.37746 -1.64075 -4.19995 
844 1 -0.24011 -1.24517 -5.76763 
74 1 0.537443 -1.09489 -5.56033 
35 1 1.42557 -0.98808 -4.9523 
830 1 1.86708 -0.699546 -5.70713 
1363 2 2.02461 -2.37611 -4.1428 
1259 2 2.48408 -1.81816 -4.58924 
1700 2 1.92506 -1.69263 -5.75539 
1698 2 4.08169 -0.92786 -5.69193 
1257 2 3.67013 -1.23569 -5.00984 
1190 2 4.51321 -0.910801 -4.80452 
25 1 4.93378 -1.70656 -5.48964 
66 1 5.69849 -1.49078 -5.22051 
784 1 5.23138 -1.90235 -4.47916 
1780 2 -5.3294 0.186881 -5.52433 
1118 2 -5.98796 -0.153342 -5.03261 
1083 2 -5.13145 0.0198182 -4.7112 
833 1 -3.99384 -0.63854 -5.27993 
543 1 -3.52245 -0.717256 -4.51824 
2048 2 -3.67037 0.383151 -4.08457 
419 1 -3.20513 -0.247885 -5.68458 
505 1 -2.78691 -0.148218 -4.97044 
848 1 -2.26314 0.376642 -5.66261 
1911 2 -1.53378 -0.652331 -5.70139 
374 1 -1.478 0.44353 -5.47596 
1713 2 -0.598786 -0.371737 -5.30649 
2032 2 0.447329 0.0384701 -5.53825 
1133 2 0.156883 -0.394721 -4.84479 
1644 2 1.21331 0.221207 -5.16208 
1858 2 1.90393 0.270593 -4.45655 
916 1 2.31367 -0.555187 -4.98455 
31 1 3.00212 -0.42883 -5.29829 
845 1 2.44615 -0.239988 5.83859 
900 1 3.82295 0.00912021 -5.47366 
715 1 4.02014 0.0790689 -4.73894 
125 1 4.89802 0.251474 -4.25914 
163 1 4.70609 0.473342 -5.30802 
1634 2 5.72928 -0.0126903 -5.89995 
872 1 5.53725 0.769605 -4.70346 
1250 2 5.08345 -0.55871 -5.2632 
310 1 -5.81519 1.20972 -5.74147 
960 1 5.26292 0.897483 -5.73194 
94 1 -4.51555 1.42159 -4.84514 
164 1 -3.95008 1.90131 -5.4178 
1736 2 -4.38477 0.66711 -5.77391 
1224 2 -4.26794 0.295312 -5.02036 
1775 2 -3.46782 0.608956 -4.96512 
1165 2 -2.72164 1.14599 -5.40779 
1498 2 -1.96445 1.38233 -4.96863 
1212 2 -1.70735 1.59034 -5.71984 
73 1 -0.764256 0.946936 -5.87517 
829 1 -0.00816707 0.935007 -5.30903 
1322 2 -1.00323 1.73587 -5.40276 
551 1 1.14089 1.37806 -5.09685 
451 1 1.30962 1.80577 -5.89793 
1468 2 1.50685 0.654817 5.81767 
439 1 1.96102 1.49366 -4.90232 
1220 2 1.98798 0.553302 -5.35254 
482 1 2.2667 1.93606 -5.64982 
1500 2 3.34544 1.05159 -5.18098 
1952 2 3.73198 0.980174 -4.33412 
1986 2 4.03857 1.41266 -5.25036 
138 1 4.54448 0.886564 5.48324 
1505 2 4.92567 1.78885 -5.19813 
1603 2 5.8515 2.01553 -5.11583 
1000 1 -5.80367 3.37062 -5.11617 
1179 2 -5.34382 2.34193 -5.33938 
1717 2 -5.69442 2.55782 5.64702 
1336 2 -3.73485 3.15387 -5.40892 
852 1 -3.21796 2.35744 -5.89628 
1914 2 -4.42178 2.74371 -5.36723 
956 1 -2.91798 2.13726 -5.16933 
815 1 -2.12893 2.36603 -4.96282 
727 1 -1.32984 2.6569 -4.91693 
752 1 -1.50251 2.829 -5.67111 
990 1 -0.751636 3.15666 -5.81508 
1222 2 0.19489 2.34209 -5.78559 
1962 2 -0.226923 1.97716 -5.05425 
1494 2 -0.565001 2.16889 5.71196 
1653 2 1.16327 2.75503 -5.57848 
1054 2 0.69125 2.21389 -4.78517 
1681 2 1.8547 2.82987 -5.14082 
869 1 2.81116 1.96629 -4.93277 
1065 2 3.01975 3.21824 -5.15806 
96 1 3.63334 2.19901 -4.47143 
97 1 4.37544 2.73292 -4.85118 
523 1 3.51479 2.37092 -5.41597 
235 1 5.33749 3.03534 -4.87907 
762 1 5.81709 2.80979 -4.13336 
171 1 -5.87783 3.60492 5.88233 
882 1 -4.96189 3.50014 -5.07614 
1376 2 5.86023 4.34285 -5.01599 
509 1 -5.00847 3.96315 -5.86057 
733 1 -4.23605 3.91242 -5.04047 
1772 2 -2.95322 3.42651 -5.36368 
901 1 -2.76808 4.40112 -4.7496 
1378 2 -1.92545 3.77992 -5.55324 
146 1 -3.41187 4.3433 -5.46751 
1142 2 -1.2 4.06683 -5.45406 
1304 2 -0.66907 4.03865 -4.61993 
1607 2 -0.210851 4.53062 -5.62342 
417 1 -0.025469 3.44092 -5.32789 
1042 2 0.0413411 4.36813 -4.70543 
546 1 0.198045 3.67221 5.78972 
407 1 0.958654 3.96475 -5.64851 
143 1 0.693111 3.36683 -4.91352 
896 1 1.4861 3.65652 -4.77969 
777 1 1.79391 4.08397 -5.47171 
1085 2 2.38839 3.17532 -5.82975 
1342 2 3.02052 3.62293 5.72802 
208 1 2.56374 4.53407 -5.76698 
690 1 3.12365 4.50271 -4.97198 
1420 2 3.67006 3.79386 -5.57434 
1479 2 5.09337 4.44207 5.73913 
1969 2 5.05961 4.01706 -5.32622 
993 1 -4.90071 5.8406 -4.60538 
1670 2 -5.3297 4.96625 -5.54982 
399 1 -5.81132 5.78342 -5.22761 
1697 2 -4.54679 4.88152 -5.05502 
1688 2 -3.53512 5.58462 -5.43887 
1278 2 -3.70476 5.17873 -4.56887 
165 1 -1.94858 4.53643 -4.34861 
1526 2 -2.8497 5.50975 -4.95475 
45 1 -2.32192 4.76435 -5.35399 
276 1 -1.52003 4.97987 -4.9272 
120 1 -0.61397 5.40751 -5.41381 
729 1 0.0993426 5.34514 -4.26796 
1499 2 0.478984 4.86271 -5.20156 
496 1 0.240072 5.74973 -5.03309 
1974 2 1.7239 5.37763 -5.77294 
1926 2 1.3852 5.07642 -5.0304 
1704 2 3.06797 5.8751 -5.5989 
1016 1 3.28251 4.93353 5.74664 
1955 2 2.43277 5.82497 5.72597 
1405 2 2.48112 5.51756 -5.3056 
1145 2 3.00934 5.52924 -4.62822 
255 1 3.79029 4.85423 -5.45404 
318 1 4.61261 4.96558 -5.10935 
432 1 5.35852 5.50471 -5.64919 
1390 2 -4.69246 -4.61085 -4.48777 
1090 2 -4.9457 -5.14286 -3.67939 
1103 2 -5.76837 -5.51169 -3.50697 
1714 2 -5.57463 -5.12208 -4.35746 
1047 2 -4.07812 -5.06183 -3.08787 
229 1 -4.27817 -5.61469 -4.19978 
1239 2 -3.94902 -4.65752 -3.83664 
333 1 -4.08073 5.71291 -3.52359 
274 1 -3.23954 -5.33051 -4.79893 
5 1 -3.49697 -5.57756 -3.96127 
91 1 -2.31047 -5.15045 -4.49109 
1014 1 -2.61143 -5.36199 -3.77908 
202 1 -0.924098 -4.46272 -4.38463 
1419 2 -1.27811 -5.86703 -4.27346 
902 1 -1.69648 -4.79704 -4.10721 
1575 2 -0.665901 -5.33938 -4.96991 
1739 2 0.937886 -4.94402 -4.49762 
1191 2 0.0409591 -5.3266 -4.3404 
1429 2 1.60166 -5.0819 -3.91263 
1417 2 0.740223 -5.42589 -3.56324 
931 1 2.70004 -5.48341 -4.28053 
361 1 2.68095 -5.83771 -3.4485 
429 1 4.4336 -4.93804 -3.8058 
487 1 3.55361 -5.44705 -3.52272 
64 1 5.16796 -4.78745 -3.82953 
1307 2 5.40627 -5.6693 -4.20476 
1192 2 4.35909 -5.91126 -4.59101 
516 1 -5.20804 -4.36525 -3.11027 
242 1 -4.83684 -3.96156 -3.83137 
1699 2 -3.11059 -4.75288 -3.08565 
273 1 -4.01831 -3.59696 -3.58483 
1425 2 -1.82355 -3.96514 -3.66851 
1931 2 -2.72945 -4.14997 -3.84817 
1711 2 -1.26053 -3.46626 -4.31536 
1922 2 -0.440906 -3.49289 -3.62335 
765 1 0.722691 -3.75826 -4.48898 
497 1 0.150572 -3.4973 -5.52895 
260 1 1.1999 -3.38457 -5.27735 
203 1 0.527311 -4.41992 -3.33033 
938 1 1.25863 -3.94848 -3.81798 
1 1 1.79657 -3.48403 -4.57543 
2004 2 1.83241 -4.545 -4.64307 
1747 2 3.50514 -4.02636 -4.38284 
547 1 2.14838 -3.80401 -3.49186 
1338 2 2.60677 -4.39251 -4.23737 
1260 2 4.0725 -4.01739 -3.71083 
1984 2 4.384 -3.57275 -4.48337 
1609 2 4.80673 -3.71071 -3.45308 
511 1 5.77057 -4.56936 -3.0527 
102 1 5.89027 -4.27897 -3.8432 
1592 2 5.51547 -3.36165 -3.62162 
1750 2 -4.26768 -2.80115 -2.87779 
1129 2 -5.49667 -3.20349 -3.23231 
1937 2 -4.9136 -2.75536 -3.40641 
1655 2 -4.16714 -2.35399 -3.87847 
967 1 -4.20902 -3.31841 -4.42306 
1588 2 -2.92929 -2.007 -3.63806 
339 1 -3.3703 -3.19751 -4.05486 
196 1 -2.59819 -2.72223 -4.27522 
1817 2 -3.34584 -2.75477 -2.42709 
773 1 -0.983347 -2.06856 -4.42572 
1991 2 -0.59548 -2.95261 -4.80949 
504 1 -1.42061 -2.6074 -3.83691 
236 1 -0.637265 -2.44422 -3.39776 
1881 2 0.177424 -2.91179 -4.25353 
150 1 -0.184247 -1.92738 -3.99148 
1878 2 0.740721 -2.9836 -3.46385 
1946 2 1.16892 -2.4715 -4.51306 
1326 2 1.54783 -2.77887 -3.68782 
819 1 2.52605 -3.34135 -4.06622 
1197 2 2.71566 -2.25484 -3.43826 
1001 1 3.37339 -2.97726 -3.90743 
999 1 4.09233 -2.50296 -4.25977 
1341 2 5.13412 -3.09093 -4.43772 
1705 2 -5.7563 -2.82725 -4.17863 
948 1 4.83971 -2.37373 -3.83889 
37 1 -5.48326 -1.93162 -3.17744 
344 1 -5.77301 -1.63339 -4.57935 
212 1 -5.06317 -1.5452 -4.00681 
205 1 -4.16445 -1.18117 -3.96041 
499 1 -3.63367 -1.12732 -3.31409 
1664 2 -3.54998 -1.90135 -4.37598 
214 1 -3.01234 -0.767994 -3.70998 
1097 2 -1.94608 -1.77177 -3.44774 
1851 2 -1.63723 -1.24723 -4.14523 
657 1 -0.493775 -1.66836 -5.07718 
2041 2 -1.19503 -0.798244 -4.85661 
875 1 0.31189 -1.47262 -4.72249 
691 1 0.525824 -1.96091 -3.37216 
1456 2 -1.03033 -1.15105 -3.78067 
677 1 0.952552 -1.55721 -4.11903 
427 1 1.78782 -1.09651 -4.00152 
986 1 3.27125 -0.33454 -4.43715 
1923 2 3.12154 -1.94104 -4.09985 
106 1 2.59399 -0.91571 -4.23954 
1894 2 4.07348 -1.3506 -4.22339 
983 1 3.87824 -0.268182 -3.80824 
1580 2 3.78924 -1.76201 -3.56754 
1167 2 4.60855 -1.49037 -3.17514 
117 1 5.86216 -1.86431 -3.91218 
1148 2 5.37352 -0.627635 -4.52725 
1615 2 4.8393 -1.05719 -3.89696 
1174 2 5.46909 -1.24496 -3.17334 
1184 2 5.83212 -0.859098 -3.7523 
1350 2 -5.07567 -0.691228 -3.39007 
494 1 -4.72828 1.08089 -3.85334 
1964 2 -4.43986 -0.0761195 -4.1434 
1939 2 -5.2129 -0.507049 -4.21123 
1876 2 -2.28645 0.553119 -3.44582 
1104 2 -2.57936 0.0254395 -2.87511 
291 1 -1.99905 -0.138582 -4.82579 
776 1 -1.23969 0.0699688 -4.28823 
615 1 -0.769996 0.533756 -4.88978 
271 1 -2.33583 -0.426426 -4.11463 
1963 2 -0.33979 -0.779662 -4.27579 
963 1 -0.479566 0.101234 -3.78727 
1673 2 1.01079 -0.120155 -4.52689 
1832 2 1.13961 -0.389066 -3.76188 
1568 2 0.408887 -0.647103 -3.96766 
1784 2 2.07039 -0.21101 -3.49534 
1314 2 2.80996 0.625206 -4.73333 
1229 2 2.66502 0.336771 -3.90562 
195 1 4.6406 -0.0726821 -3.54759 
1225 2 3.46652 0.757267 -3.51248 
626 1 3.95739 -0.671144 -3.09305 
299 1 -5.51328 0.262876 -3.08328 
708 1 5.58535 0.180635 -3.72659 
824 1 -5.40346 1.0392 -4.92767 
469 1 -5.51588 0.641944 -3.96787 
1204 2 -5.50511 1.89005 -4.20322 
1861 2 -5.5439 1.66082 -3.20899 
240 1 -3.84491 1.26449 -4.05132 
982 1 -3.73404 0.911302 -3.15813 
1256 2 -2.80546 0.682664 -4.34386 
613 1 -3.50844 1.75979 -4.67466 
552 1 -2.98702 1.58051 -3.71511 
2001 2 -2.08711 0.955366 -4.25871 
1797 2 -1.06549 1.3844 -4.59207 
1298 2 -1.39708 1.00696 -3.76468 
1021 1 -0.0050967 0.555478 -4.43835 
1821 2 -0.2567 1.56345 -4.29277 
1967 2 0.308594 1.40771 -3.15217 
749 1 0.731314 0.932361 -4.57708 
1550 2 -0.511134 1.20845 -3.52249 
827 1 1.42573 1.14338 -4.18673 
517 1 1.32434 0.691548 -3.43826 
726 1 2.20365 1.20777 -3.4729 
178 1 2.58066 1.57094 -4.15205 
188 1 2.87081 1.39041 -3.06307 
1564 2 4.53135 0.985536 -3.51347 
447 1 3.25508 1.70777 -3.68082 
1288 2 5.54606 1.58867 -4.20093 
1470 2 4.53323 1.47577 -4.30394 
1320 2 5.51443 1.23983 -3.34163 
596 1 4.78214 2.44201 -4.13518 
1512 2 -4.74344 2.29671 -4.52071 
702 1 -4.84372 2.99207 -3.3413 
751 1 -5.34904 3.149 -4.34922 
1800 2 -4.05153 2.71134 -4.35141 
1282 2 -3.37457 3.01716 -4.65052 
1485 2 -3.43888 2.69065 -3.62097 
1415 2 -2.25962 3.43674 -4.69413 
56 1 -2.38871 2.00346 -4.18343 
2045 2 -1.76966 3.22923 -3.66016 
1183 2 -2.65114 3.00646 -4.1106 
262 1 -0.532115 3.006 -4.82535 
39 1 -1.48515 2.36464 -4.12125 
76 1 -0.607998 2.58823 -4.02567 
716 1 0.205753 2.93094 -4.17641 
44 1 0.163442 2.68434 -3.32566 
1643 2 0.609202 1.85715 -4.00157 
448 1 1.21059 3.28589 -4.00464 
1834 2 1.40644 2.31309 -4.37912 
1999 2 2.49164 2.81755 -4.6557 
1158 2 2.89508 2.96429 -3.94931 
1642 2 2.01412 2.46823 -3.80004 
1245 2 3.56234 3.29716 -4.36164 
1618 2 4.59999 3.41518 -3.91774 
739 1 5.20679 2.33947 -3.28426 
947 1 -5.71124 2.70009 -3.41076 
1349 2 -5.1899 4.56826 -4.69346 
1214 2 -5.74033 4.08087 -4.02589 
1562 2 -5.07228 4.2385 -3.44849 
1072 2 -5.67156 3.73327 -3.06227 
123 1 -3.66323 3.96635 -4.46958 
396 1 -4.46621 3.48197 -4.01243 
298 1 -3.0692 3.67399 -2.74348 
1207 2 -3.86365 4.7711 -3.77753 
204 1 -2.66682 4.36143 -3.92853 
418 1 -1.96156 4.20877 -3.46764 
1938 2 -1.44003 3.62017 -4.56944 
1170 2 -0.955985 3.57183 -3.76259 
1997 2 0.00193754 3.98215 -3.93364 
1071 2 0.837878 4.37013 -4.31484 
1869 2 0.820375 4.12469 -3.50315 
1854 2 1.64307 4.70026 -3.94465 
823 1 2.07501 3.727 -4.07893 
650 1 2.52528 4.05167 -4.74882 
23 1 2.77064 3.78174 -3.43539 
786 1 3.17694 4.10073 -4.07118 
1612 2 2.2722 4.66427 -3.20319 
370 1 4.03617 4.33903 -3.66593 
1274 2 4.16431 3.74262 -4.91919 
1640 2 5.21809 3.97333 -4.43695 
1095 2 5.43576 3.5765 -3.54739 
582 1 -5.65713 5.45447 -4.24417 
918 1 -4.9248 5.65057 -3.71982 
1662 2 -4.57265 4.70324 -4.13588 
1302 2 -3.01799 5.25615 -4.00112 
1801 2 -2.83741 5.07637 -3.10457 
1088 2 -2.27651 5.56359 -4.22012 
323 1 -0.655906 5.13216 -4.42015 
1211 2 -0.523852 -5.63425 -3.86034 
797 1 -1.02947 4.31067 -2.94895 
26 1 -1.1887 4.72748 -3.90134 
925 1 -0.22124 4.83643 -3.4376 
638 1 0.959372 5.6461 -4.18971 
1013 1 1.93345 5.8324 -3.81036 
736 1 1.38611 5.41372 -3.31595 
1875 2 2.16497 4.99171 -4.46318 
1847 2 2.94745 5.0443 -3.90397 
835 1 3.89881 4.68104 -4.51457 
1846 2 3.69945 5.53925 -3.97908 
1418 2 4.6006 5.80094 -3.8398 
927 1 4.71831 4.78883 -4.22499 
342 1 5.35554 5.27714 -4.6491 
166 1 5.72396 4.90851 -3.62534 
1318 2 -4.86496 -5.36871 -2.76532 
684 1 -5.19373 -4.5809 -2.28229 
130 1 5.72278 -5.0045 -2.22171 
1227 2 -4.45593 -5.63282 -2.05451 
1203 2 -3.76941 -5.31876 -2.36234 
227 1 -3.21148 -5.84751 -3.0341 
1285 2 -2.93328 -4.96509 -2.3005 
85 1 -1.55275 -5.12338 -3.35347 
467 1 -0.645212 -4.62823 -3.5897 
672 1 0.13805 -4.29864 -4.14902 
30 1 -0.924205 -5.12358 -2.81869 
286 1 -0.433984 -5.29975 -2.01155 
1585 2 0.154039 -5.79921 -3.16762 
459 1 -0.0684704 -4.68482 -2.88055 
1490 2 1.64875 -5.19216 -3.11159 
1353 2 2.39314 -4.76302 -3.50909 
1818 2 2.27234 -5.36401 -2.33905 
1236 2 2.82966 -4.91215 -2.76424 
442 1 3.31941 -5.84575 -2.8197 
43 1 4.98487 -4.98577 -2.93608 
857 1 4.20804 -5.46495 -3.00969 
1082 2 3.51457 -4.78436 -2.30878 
542 1 4.96436 -5.36058 -2.12936 
483 1 4.10214 -5.79199 -2.26001 
955 1 -4.37679 -3.87913 -2.94705 
1319 2 -5.5753 -3.67261 -2.02118 
622 1 -3.50135 -3.93449 -2.61218 
280 1 -3.09914 -3.37177 -3.24862 
1848 2 -2.29295 -4.44102 -2.97821 
353 1 -2.46841 -3.49714 -2.43363 
998 1 -1.57208 -3.31214 -1.92663 
218 1 -2.30471 -3.00464 -3.63497 
1559 2 -1.09332 -3.80826 -3.20676 
1046 2 -1.41905 -4.24798 -2.33063 
1381 2 0.225748 -3.4128 -3.0349 
1748 2 -0.43726 -3.76378 -2.60979 
1896 2 0.621767 -3.5971 -2.3329 
277 1 1.66202 -4.16704 -2.95898 
569 1 0.983754 -4.50637 -2.60391 
305 1 1.58815 -4.41317 -1.92468 
981 1 2.37205 -4.0976 -2.3529 
416 1 2.96634 -3.54914 -3.15571 
455 1 3.10189 -3.75688 -2.38898 
2017 2 3.21671 -4.3848 -3.54604 
1528 2 4.08865 -4.31755 -2.87703 
1859 2 4.35313 -4.47375 -2.07475 
1995 2 5.62741 -3.53667 -2.80641 
2019 2 4.8363 -4.05492 -2.58583 
587 1 -5.82128 -2.49982 -2.49234 
1475 2 -4.9553 -3.267 -2.30552 
636 1 -4.40667 -2.05868 -1.89842 
1924 2 -3.59891 -2.35968 -3.24661 
2007 2 -4.62794 -3.35597 -1.50969 
1119 2 -4.06947 -3.05757 -2.00984 
1908 2 -2.34367 -2.25292 -2.94478 
411 1 -1.83604 -3.11249 -2.8972 
246 1 -0.928795 -2.90356 -2.70593 
11 1 0.0547249 -2.41648 -2.76529 
215 1 0.53788 -2.51845 -1.93689 
1798 2 2.04985 -3.06031 -2.12769 
1066 2 1.22315 -3.23402 -2.73102 
566 1 0.992059 -2.17203 -2.50586 
705 1 1.85742 -1.75799 -2.70039 
1581 2 3.422 -2.13475 -2.85223 
1263 2 2.10114 -2.84189 -2.94393 
1128 2 2.95961 -2.59208 -2.28279 
1942 2 3.67927 -2.29603 -2.00843 
245 1 3.68146 -3.17148 -3.07394 
928 1 4.27045 -2.8137 -3.5006 
914 1 5.39292 -2.78086 -2.23333 
161 1 5.40558 -2.43835 -3.25429 
136 1 4.66176 -2.96816 -2.69015 
1978 2 -4.94396 -1.09479 -1.89499 
1037 2 -5.57074 -0.985583 -2.76623 
532 1 -4.86647 -1.98167 -2.52903 
1279 2 -4.6462 -0.771294 -2.6429 
252 1 -4.68738 -1.63319 -3.32262 
717 1 -4.18264 -1.63647 -2.58637 
886 1 -2.51772 -0.908934 -3.02383 
1483 2 -1.23429 -1.67184 -3.03647 
789 1 -3.07952 -1.33626 -2.62309 
121 1 -2.40056 -1.25977 -2.06989 
1993 2 -0.451945 -1.40668 -2.6425 
1216 2 -1.7606 -2.12694 -2.35106 
1867 2 0.325952 -1.38811 -2.35941 
1517 2 -0.290794 -1.12643 -3.43406 
241 1 1.32474 -1.66227 -3.49811 
2046 2 0.646703 -0.860916 -3.02088 
287 1 3.23645 -0.910058 -3.4802 
700 1 2.24247 -1.31974 -3.21237 
1947 2 4.21092 -2.04593 -2.73152 
421 1 2.87203 -1.27989 -2.52058 
962 1 3.77255 -1.13341 -2.43605 
1163 2 5.29125 -1.55517 -2.42253 
1337 2 -5.79527 -1.31994 -2.00482 
686 1 -4.66724 0.700428 -3.15322 
297 1 -5.73848 -0.154635 -2.38395 
958 1 -5.25666 -0.268408 -1.45556 
189 1 -4.88905 0.214641 -2.26252 
1960 2 -3.11158 0.184085 -3.4319 
1792 2 -4.31032 -0.260327 -3.43965 
1206 2 -3.79508 -0.315517 -2.71549 
1030 2 -3.13571 -0.211561 -2.20626 
1683 2 -2.04367 0.394267 -2.31823 
234 1 -1.63904 -0.726156 -2.55805 
1432 2 -1.10335 0.393207 -1.91013 
1754 2 -1.52666 0.634219 -3.04031 
449 1 -1.69312 -0.381008 -3.4766 
714 1 -0.693145 -0.548119 -2.22261 
95 1 0.480741 0.497781 -3.75039 
842 1 -0.987822 -0.235479 -3.15365 
1360 2 1.57958 -0.570557 -2.883 
625 1 0.0159124 -0.0509838 -3.03823 
80 1 0.762044 0.299392 -2.84628 
1059 2 2.50442 -0.400215 -2.59679 
90 1 1.93666 0.700294 -2.81546 
1819 2 2.96923 0.125806 -3.10833 
1803 2 4.07733 0.536644 -2.68723 
1045 2 4.9907 0.81281 -2.75546 
278 1 4.66177 -0.629377 -2.46591 
145 1 5.25984 -0.0858146 -3.00441 
42 1 5.54234 -0.535315 -1.92567 
1092 2 -4.49391 2.03634 -3.56185 
1572 2 -4.80257 1.63917 -2.70916 
1172 2 -4.33215 1.51218 -1.91047 
921 1 -3.97376 0.568084 -2.45132 
1983 2 -4.01313 1.96899 -2.91983 
124 1 -2.97119 1.30138 -2.9771 
593 1 -3.21015 0.902116 -2.30816 
183 1 -2.11186 1.41232 -2.53091 
1830 2 -0.882397 0.760891 -2.70761 
259 1 -1.10335 1.80536 -2.35189 
115 1 -0.184238 1.99119 -2.12132 
1444 2 -0.113485 0.967078 -2.47903 
1826 2 -0.153671 0.609929 -1.7051 
1025 2 1.15379 1.4903 -2.87433 
1050 2 1.37389 1.97445 -3.56333 
1825 2 2.1839 2.01175 -2.78365 
401 1 3.37889 1.31027 -2.06436 
382 1 2.70611 0.835703 -2.39833 
1994 2 2.47992 1.73183 -1.77181 
408 1 3.7332 1.52389 -2.90302 
731 1 4.21531 1.47122 -2.04805 
574 1 4.19286 2.0269 -3.49625 
1068 2 -5.89083 1.21558 -2.70294 
811 1 4.63644 1.80676 -2.62016 
7 1 5.32535 1.79364 -1.99751 
944 1 -3.91093 3.29449 -3.02318 
446 1 -5.28169 2.66008 -2.52631 
224 1 -3.22544 3.81102 -3.7004 
381 1 -4.39317 2.78925 -2.36591 
1959 2 -3.14517 2.3485 -2.70157 
1446 2 -2.59668 2.81258 -3.1761 
1668 2 -2.48016 2.38059 -2.25696 
828 1 -2.14073 1.86887 -3.37413 
493 1 -1.18174 2.14649 -3.38054 
2047 2 -1.78677 2.92989 -2.74975 
1732 2 -0.823031 2.84267 -1.88986 
885 1 -0.341677 2.15545 -2.91111 
394 1 1.01246 2.97495 -3.21569 
795 1 1.77349 3.35297 -3.39437 
919 1 0.637912 2.34902 -2.57272 
653 1 1.51636 2.83205 -2.36725 
1769 2 2.95833 2.51426 -3.05068 
258 1 2.46839 2.99792 -1.82554 
1461 2 3.86756 3.10677 -3.54715 
1146 2 4.54252 2.76352 -2.32989 
1786 2 3.71436 2.77088 -2.69455 
2020 2 3.03233 2.23104 -2.26754 
920 1 5.78787 2.4258 -2.68889 
1779 2 4.70603 3.24168 -2.95533 
1335 2 -4.86674 3.88479 -2.56915 
1333 2 -5.61147 3.52912 -2.07974 
1365 2 -4.31193 4.32886 -2.91135 
1048 2 -4.00937 4.1469 -2.08193 
568 1 -3.50031 3.21146 -2.27522 
631 1 -2.2529 3.82548 -2.84281 
474 1 -2.61144 3.38242 -1.96768 
17 1 -0.808641 3.97225 -2.15187 
1175 2 -0.99486 3.07568 -2.8384 
1023 1 -1.79959 3.76245 -2.03906 
612 1 -0.122642 4.18646 -1.72711 
1268 2 -0.145837 3.66258 -3.09857 
1267 2 -0.0804055 3.2136 -2.33992 
1406 2 0.661711 3.80047 -2.70726 
1625 2 0.525933 3.25605 -1.80482 
131 1 0.505294 4.62633 -2.16256 
1178 2 1.53919 4.23968 -2.90961 
1362 2 1.32103 3.82397 -2.07084 
1234 2 2.14543 4.21371 -2.22983 
470 1 2.28189 3.30913 -2.72272 
525 1 3.59987 3.8947 -2.93979 
437 1 4.37128 4.04979 -2.63775 
103 1 3.02188 3.58477 -2.50575 
440 1 5.01279 4.53181 -3.34424 
1105 2 5.44803 3.30219 -2.50904 
355 1 4.97731 4.19486 -2.13725 
946 1 5.58636 4.65733 -2.65037 
662 1 -5.42982 5.08638 -3.09317 
1782 2 -5.54936 -5.89481 -2.63324 
93 1 -5.33465 4.744 -2.31492 
1604 2 -5.18934 5.90895 -1.83479 
805 1 -4.53881 5.2829 -3.07736 
147 1 -3.73583 5.48564 -2.63576 
974 1 -4.47751 5.10585 -2.26585 
1636 2 -1.89112 5.3754 -3.35272 
1989 2 -3.50019 4.57703 -2.94078 
2033 2 -2.34795 4.89798 -2.5201 
1413 2 -1.92707 4.70905 -1.86435 
1138 2 -1.11599 5.7053 -3.42274 
1971 2 -1.47189 5.20789 -2.54528 
1527 2 -0.533107 5.72201 -2.88998 
41 1 -0.207533 4.61432 -2.6288 
1510 2 1.00066 -5.57679 -2.64185 
564 1 0.598006 5.01454 -2.82425 
905 1 0.492625 5.31534 -3.62525 
627 1 1.35664 5.33451 -2.53538 
1161 2 2.93469 4.71757 -2.71668 
180 1 2.09164 5.69097 -2.89404 
635 1 2.72653 5.51119 -2.05986 
1764 2 3.64827 5.17055 -3.17263 
1428 2 3.77 4.9121 -2.42721 
1488 2 4.5824 5.10154 -1.8725 
1719 2 4.43276 5.39521 -3.05876 
1126 2 5.48235 5.87628 -3.16688 
1489 2 5.16305 5.57691 -2.38525 
284 1 -4.80063 -4.78533 -1.64848 
847 1 -5.63283 -5.08201 -1.54511 
153 1 -4.20946 -4.77226 -0.910402 
1548 2 -3.40894 -5.39803 -1.65979 
1638 2 -4.07996 -5.62059 -1.26277 
1807 2 -3.1571 -5.7467 -0.881457 
1411 2 -2.48805 -5.37917 -1.22051 
1812 2 -2.20786 -4.7359 -1.97352 
832 1 -1.57874 -5.61251 -2.33176 
763 1 -1.58979 5.75117 -1.12024 
678 1 -1.06278 -5.56224 -1.58132 
317 1 0.176167 -5.28888 -1.29023 
754 1 0.431723 -4.86756 -2.07048 
1957 2 1.46915 -5.76718 -1.90669 
693 1 1.05228 -4.91952 -1.4441 
1571 2 2.1708 -5.4397 -1.54241 
1611 2 3.06713 -5.17921 -1.77498 
1742 2 2.87651 -5.49863 -0.885847 
1198 2 4.05571 -4.88149 -1.40155 
1915 2 3.60388 -5.14885 -0.638172 
19 1 3.4739 5.72615 -1.83808 
1232 2 4.98228 -4.57296 -1.28734 
490 1 5.25831 -5.46641 -1.28065 
991 1 -5.8487 -5.59447 -0.749976 
1537 2 -4.17349 -3.59099 -0.868564 
2002 2 5.80943 -4.25646 -0.964805 
1948 2 -5.28777 -3.97139 -1.24918 
878 1 -4.27086 -4.29056 -2.08463 
524 1 -3.72946 -4.3725 -1.52436 
2010 2 -3.51673 -3.82613 -0.192838 
724 1 -3.11818 -4.05638 -1.78854 
398 1 -2.37463 -3.81941 -1.38567 
1535 2 -1.47203 -4.76638 -1.17221 
402 1 -1.58911 -3.73935 -0.85634 
1404 2 -0.971337 -4.2907 -1.69488 
1394 2 0.0294493 -3.88799 -1.87347 
1209 2 -0.295972 -4.42358 -1.0271 
324 1 0.0237597 -2.9774 -1.16023 
1973 2 0.791914 -3.93326 -1.33246 
1452 2 1.3823 -3.82596 -0.520545 
1770 2 1.99807 -3.61366 -1.16865 
1637 2 1.44608 -3.39632 -1.81016 
423 1 1.91703 -4.71032 -0.92686 
976 1 2.67341 -4.28011 -1.3873 
1985 2 2.61236 -2.94194 -1.52528 
137 1 4.1162 -3.65715 -1.45362 
311 1 3.94195 -3.31604 -2.24274 
424 1 4.53308 -3.72299 -0.700358 
1201 2 5.43507 -4.05247 -1.81596 
1657 2 5.505 -4.81201 -0.306602 
475 1 4.85218 -3.27062 -1.47889 
917 1 -5.22723 -2.33463 -1.81373 
661 1 -5.3654 -2.82837 -0.908407 
58 1 -4.77322 -2.45778 -1.15812 
682 1 -3.84904 -2.23471 -1.3331 
1545 2 -3.44303 -3.16526 -1.36895 
1321 2 -2.3274 -2.96486 -1.01098 
1723 2 -2.65629 -2.67315 -1.78651 
606 1 -3.10892 -2.25468 -0.598168 
1400 2 -1.6902 -2.78878 -0.428923 
1252 2 -0.841357 -2.09793 -1.1483 
251 1 -0.925627 -3.15722 -1.32623 
1449 2 -1.74727 -2.42867 -1.42212 
573 1 -0.495057 -2.76845 -2.13501 
994 1 0.851159 -2.81829 -1.08407 
1052 2 -0.107142 -1.73101 -1.61208 
377 1 1.47945 -2.29997 -1.74878 
846 1 2.58416 -1.99263 -1.09881 
867 1 2.74593 -2.33629 -0.401765 
1641 2 3.48251 -2.8075 -1.26537 
116 1 2.33869 -1.75426 -2.00626 
1738 2 2.94406 -3.25134 -0.643187 
1156 2 4.81691 -1.94186 -1.7712 
1787 2 4.20227 -2.42527 -1.38139 
140 1 5.85419 -2.87357 -1.48385 
1645 2 5.01471 -2.18727 -0.874274 
1492 2 5.72725 -2.08176 -0.448315 
2035 2 -4.59422 -1.25854 -1.22184 
1893 2 -4.06474 -0.654356 -1.98084 
99 1 -3.58283 -1.78715 -2.05405 
1110 2 -3.85851 -0.982138 -1.08133 
1098 2 -4.44867 -1.65346 -0.336121 
177 1 -3.13917 -1.81075 -1.38763 
1310 2 -2.64165 -0.660672 -0.797226 
951 1 -2.23707 -1.54811 -1.25893 
1031 2 -1.93409 -0.424177 -0.540687 
898 1 -1.50377 -1.18136 -1.46945 
167 1 -0.748589 -0.814947 -1.28191 
1573 2 0.709368 -1.56953 -1.31169 
1781 2 -0.925277 -1.834 -2.00361 
537 1 0.113686 -0.702319 -1.45782 
1682 2 1.46988 -1.25677 -1.31127 
1804 2 1.10981 -1.09918 -2.19642 
1266 2 2.34153 -0.96345 -1.03263 
1680 2 1.96709 -0.647465 -1.91776 
1584 2 3.37759 -0.595758 -1.07887 
977 1 3.20077 -1.44469 -1.63587 
375 1 4.07049 -1.21788 -1.68374 
364 1 4.28011 -1.44347 -0.759404 
1667 2 -5.44817 -1.5134 -1.14522 
1237 2 5.65322 -1.80488 -1.37331 
703 1 4.92508 -0.933168 -1.38819 
912 1 -5.34394 -0.639921 -0.637871 
489 1 -4.64022 -0.189331 -0.960548 
910 1 -4.14797 -0.3166 -0.107345 
692 1 -4.17565 0.286163 -1.65011 
1724 2 -5.31702 0.540454 -0.665 
32 1 -3.28748 0.47011 -1.55364 
561 1 -3.82012 0.072113 -0.821079 
1352 2 -3.33741 -0.753435 -1.47656 
1589 2 -2.48264 -0.270046 -1.61073 
660 1 -2.60065 0.547186 -1.1083 
1067 2 -1.65169 -0.137709 -1.3438 
1972 2 -0.662143 0.183331 -1.08288 
160 1 0.155301 -0.270575 -2.21523 
243 1 0.821928 -0.253172 -1.34517 
1436 2 0.4552 0.873459 -1.31962 
895 1 1.97232 0.388474 -1.88402 
430 1 1.67587 -0.121174 -1.16115 
783 1 1.10923 0.0732023 -2.1095 
1659 2 2.87797 -0.463444 -1.82839 
50 1 2.90311 0.523067 -1.74286 
194 1 3.23364 0.470712 -0.939381 
2030 2 4.51641 0.233984 -2.00766 
1916 2 3.53406 -0.0230342 -2.42502 
1921 2 4.53255 -0.0262036 -0.99451 
101 1 4.07555 0.823925 -0.672968 
518 1 5.81819 -0.641154 -1.02667 
1777 2 5.33996 0.609492 -1.9324 
1139 2 5.36922 0.303408 -0.942948 
1361 2 -5.26606 1.05435 -1.99444 
1839 2 -4.63723 1.01697 -1.02394 
400 1 -5.24099 1.83617 -0.960214 
1689 2 -3.7467 1.36039 -1.25314 
2021 2 -3.62745 1.76676 -2.063 
719 1 -2.49208 1.05806 -1.85657 
1727 2 -2.88985 1.6009 -0.80417 
1247 2 -2.73906 2.02188 -1.61851 
744 1 -1.79806 0.852723 -0.827485 
911 1 -1.4043 1.32799 -1.7891 
192 1 -0.505166 1.58256 -1.61252 
357 1 -0.835164 1.20566 -0.824404 
614 1 0.160061 1.63672 -0.89539 
1884 2 1.54515 1.78072 -2.23464 
1187 2 0.694099 1.08521 -2.12279 
1149 2 1.38873 1.12128 -1.59017 
1368 2 2.18039 1.20868 -1.12506 
1866 2 3.32879 1.85701 -1.17125 
837 1 3.91488 0.850978 -1.44667 
232 1 4.73813 1.33508 -1.29913 
1654 2 -5.68523 0.589646 -1.4602 
191 1 5.78466 1.60491 -1.26573 
858 1 5.16412 1.18513 -0.436863 
761 1 -5.49017 2.10408 -1.95667 
312 1 -4.75943 2.44533 -1.61425 
1348 2 -5.12458 3.30289 -1.20266 
460 1 -3.76554 2.67484 -1.63189 
520 1 -2.87905 2.97664 -1.24529 
772 1 -2.44398 2.82241 -0.589081 
294 1 -2.0737 3.13845 -1.28226 
1135 2 -1.91777 2.01312 -1.20481 
1981 2 -0.997551 2.23815 -1.15853 
2023 2 -1.67534 2.53345 -1.99587 
747 1 0.496134 2.08429 -1.68605 
1294 2 -0.142047 2.86839 -1.22683 
1616 2 0.759367 2.80173 -0.572035 
906 1 1.2711 2.4589 -1.62055 
256 1 2.07668 2.58639 -1.34609 
379 1 3.29665 3.1822 -1.46995 
641 1 2.86394 2.6985 -0.864165 
1330 2 4.06462 1.84115 -0.529429 
2039 2 3.79984 2.27824 -1.81488 
952 1 4.0552 3.23977 -1.03471 
1554 2 -5.96529 3.04587 -1.49906 
1977 2 5.09752 2.81242 -1.67935 
1686 2 4.40849 2.30894 -1.21543 
1627 2 5.3969 2.48733 -0.807775 
589 1 -5.02348 4.63966 -1.51023 
1439 2 -4.69713 3.69698 -1.75851 
1619 2 -3.45747 4.01044 -1.28078 
1287 2 -4.23685 3.60377 -0.97249 
1757 2 -2.55929 4.08162 -0.886131 
1056 2 -3.23496 4.50923 -2.20181 
720 1 -1.06526 3.57939 -1.29182 
966 1 -1.51368 3.03171 -0.613141 
1646 2 -2.74699 4.42779 -1.55579 
438 1 0.092419 3.79217 -0.799424 
871 1 0.617653 4.36577 -1.07688 
1109 2 1.03796 3.38437 -1.17368 
1913 2 1.7878 3.31753 -0.584784 
1730 2 2.93794 4.29341 -1.86885 
1621 2 2.07019 3.83586 -1.27087 
1423 2 2.94863 4.13742 -1.03925 
510 1 3.79904 3.63469 -2.08675 
1633 2 3.80059 4.55134 -1.35343 
679 1 5.51119 3.83529 -1.08508 
774 1 4.5822 3.74209 -1.54613 
119 1 5.83235 4.37235 -1.73708 
610 1 4.8026 3.52133 -0.577957 
1582 2 5.87703 5.62126 -1.7411 
1663 2 -4.83062 5.7038 -1.15196 
1367 2 -5.68013 5.40846 -0.952605 
13 1 -4.15867 5.01893 -1.37421 
860 1 -3.61235 4.9046 -0.838326 
184 1 -3.46979 5.42693 -1.77876 
326 1 -2.89084 5.77083 -2.19767 
1008 1 -2.61906 5.37257 -1.29348 
881 1 -2.25203 -5.6592 -3.04306 
1339 2 -0.986658 5.01528 -1.73895 
1992 2 -0.400486 5.46968 -2.13901 
807 1 -2.06714 5.80573 -1.82291 
1701 2 0.378563 5.90085 -2.3057 
1814 2 -0.660555 4.58257 -0.905999 