ITEM: TIMESTEP
36600
ITEM: NUMBER OF ATOMS
2048
ITEM: BOX BOUNDS pp pp pp
-5.9527735623024887e+00 5.9527735623024887e+00
-5.9527735623024887e+00 5.9527735623024887e+00
-5.9527735623024887e+00 5.9527735623024887e+00
ITEM: ATOMS id type x y z 
1227 2 -5.12397 -4.99624 -4.25697 
346 1 -4.4269 -5.78532 -4.41337 
333 1 -4.39266 -5.49929 -5.15631 
5 1 -3.42826 -5.13123 -5.21947 
91 1 -2.61475 -4.97525 -4.69044 
1526 2 -2.09618 -5.83636 -4.73239 
508 1 -3.96963 -4.9601 5.92079 
1801 2 -1.23413 -5.53854 -5.22104 
1571 2 -0.9395 -5.13999 -5.77136 
765 1 -2.49341 -4.87319 -5.50511 
1338 2 -0.258556 -5.11181 -5.09672 
1563 2 1.2934 -4.32738 -5.64413 
223 1 0.640454 -5.60767 5.81502 
1344 2 1.78152 -4.46601 -4.74106 
425 1 1.74894 -5.15136 5.88485 
707 1 2.57709 -5.09202 -5.4466 
487 1 1.9641 -5.45386 -4.92096 
1239 2 4.04157 -5.57676 -5.34499 
675 1 3.41944 -4.7982 -5.02642 
1307 2 4.83969 -5.09423 -5.87325 
1714 2 4.65516 -5.7656 -4.68178 
511 1 4.28836 -4.84902 -4.28622 
1192 2 5.1478 -5.25339 -5.14004 
2034 2 5.9118 -5.21056 -4.57201 
1849 2 -5.43102 -4.76702 -5.12024 
283 1 -5.50661 -3.38842 -5.77898 
373 1 5.8269 -3.76367 -5.27433 
1249 2 -4.38101 -4.09116 -5.86898 
1559 2 -3.62011 -4.17457 -4.80586 
353 1 -5.27544 -3.54044 -4.76438 
1390 2 -4.53315 -4.35649 -5.12486 
1467 2 -3.59381 -3.85138 -5.61184 
1472 2 -2.92754 -3.8338 -5.11411 
3 1 -3.1076 -4.59388 5.68462 
855 1 -1.74669 -4.33756 -5.41437 
202 1 -0.844022 -4.16161 -5.11332 
1 1 -0.0100509 -3.77763 -5.48941 
782 1 -0.250234 -3.48327 5.37244 
20 1 0.910293 -3.46499 -5.2451 
1790 2 1.93339 -3.83337 5.76628 
938 1 1.33356 -3.53402 -4.43281 
1236 2 3.13646 -3.94282 -4.65866 
1260 2 3.19606 -3.614 -5.45191 
1081 2 2.33454 -4.0232 -5.21123 
1528 2 5.24168 -2.5326 -5.68059 
49 1 4.21857 -4.46085 -4.94351 
1198 2 4.33405 -3.10196 -5.43341 
622 1 -5.95583 -4.10567 -4.50656 
684 1 5.04626 -4.1853 -5.22304 
826 1 5.20751 -3.68167 5.9274 
1745 2 -4.92499 -2.15365 -5.16661 
1929 2 -5.59969 -2.54165 -4.42634 
1171 2 -4.80175 -1.91766 5.90494 
102 1 -4.69189 -3.18543 -5.34715 
1475 2 -4.17131 -2.03968 -4.57408 
218 1 -3.92189 -2.98319 -4.98846 
664 1 -3.57937 -2.67078 -5.82665 
967 1 -2.93201 -2.59769 -5.1388 
922 1 -3.28479 -2.79534 -4.42294 
965 1 -2.06616 -2.29754 -4.87617 
1495 2 -1.55308 -3.01093 -5.74916 
1555 2 -0.64848 -2.95567 -5.26423 
151 1 -1.14806 -2.14246 -4.97681 
1630 2 -2.51974 -3.37519 -5.79684 
1326 2 0.109614 -2.29068 -5.63849 
819 1 1.39847 -2.94743 -5.83212 
136 1 1.84502 -3.09353 -5.09195 
1946 2 0.846523 -2.2611 -5.29393 
1250 2 1.17893 -2.64436 -4.49076 
939 1 2.95725 -2.72638 -4.94221 
706 1 2.46834 -2.68363 -5.75333 
33 1 4.4569 -1.96676 -5.26637 
928 1 3.8246 -2.42857 -4.7972 
1678 2 3.71732 -3.20152 5.79369 
904 1 3.33284 -2.25343 -5.71028 
1341 2 5.00928 -3.17312 -4.82339 
1089 2 5.68892 -2.75528 -5.03812 
1813 2 -5.81227 -2.28071 -5.73081 
403 1 5.70628 -1.58154 -5.04843 
480 1 -5.26533 -1.14515 -5.38265 
406 1 -4.66174 -0.797808 -5.75285 
562 1 -4.76859 -0.518324 5.4605 
1588 2 -4.06445 -1.81796 -5.4415 
1296 2 -3.30704 -1.82877 -4.44721 
592 1 -4.48941 -0.906028 -4.86557 
1713 2 -3.19602 -1.53176 -5.32591 
1414 2 -2.144 -1.09206 -5.27995 
1664 2 -2.57293 -1.52762 -4.78426 
741 1 -1.77659 -1.92139 -5.80194 
367 1 -0.968996 -1.62688 -5.72937 
1243 2 -1.4095 -0.930016 -4.94055 
8 1 -0.701619 -2.04436 -4.30301 
35 1 0.594295 -1.45687 -4.68021 
657 1 -0.284069 -1.57695 -4.9778 
830 1 1.37367 -1.1482 -4.92041 
1363 2 1.34703 -1.88319 5.93627 
404 1 0.804262 -1.05197 -5.50831 
1923 2 1.73751 -2.07013 -4.88382 
1259 2 2.21012 -1.71388 -5.63585 
1615 2 3.12774 -1.5334 -5.13428 
1332 2 3.59195 -1.11021 -5.78197 
2014 2 4.19218 -0.954879 -4.99719 
385 1 5.15922 -2.01705 -4.49205 
1634 2 4.81671 -0.878081 -4.47626 
1224 2 -5.32894 0.0492153 -5.31674 
1725 2 -4.71515 0.142417 -4.69133 
771 1 -3.24219 -0.554212 -5.00415 
1939 2 -4.30663 0.41946 -5.37305 
1110 2 -3.74002 0.483532 -4.62781 
348 1 -2.27969 -0.0892794 -5.09141 
505 1 -1.4089 0.185785 -4.93534 
701 1 -2.98989 -0.0926735 -5.64864 
374 1 -1.08075 0.590148 -5.5073 
704 1 -0.591301 0.512594 -4.70138 
1870 2 0.261291 -0.459168 -4.35079 
1809 2 -1.11258 -0.604695 -5.70259 
1631 2 -0.343415 -0.230935 -5.17256 
451 1 0.169495 0.857078 -4.9931 
1536 2 1.09643 0.399959 5.84438 
1180 2 1.87324 1.01762 5.67002 
872 1 2.05455 -0.663852 -5.51016 
1785 2 1.69216 0.30159 -5.30704 
2008 2 3.22824 0.848757 -5.14721 
908 1 2.49838 -0.751663 -4.59121 
105 1 2.98639 -0.294748 -5.58645 
302 1 3.52979 0.403538 5.42391 
581 1 3.71006 0.170128 -5.65353 
1037 2 5.24558 -0.462531 -5.24425 
469 1 4.12253 0.0245184 -4.28929 
1083 2 4.51211 -0.60518 -5.73328 
230 1 -4.59649 1.57815 -5.43468 
389 1 -5.62666 1.17008 -5.38409 
360 1 -4.30625 1.80767 5.80416 
1736 2 -3.41054 0.809537 -5.31426 
94 1 -3.75742 1.71978 -5.18441 
697 1 -2.85209 2.18979 -5.18817 
1343 2 -3.24105 1.20836 5.75516 
2048 2 -2.70573 0.79541 -4.52241 
1433 2 -2.91134 1.75282 5.19602 
254 1 -0.240769 1.19143 -5.83731 
1797 2 -1.68381 1.25262 -4.80714 
244 1 0.251641 1.54103 5.39096 
63 1 0.869161 1.48458 -5.6704 
570 1 1.75755 1.71915 -5.46642 
534 1 1.2095 1.16778 -4.92354 
482 1 1.35244 2.04838 5.55622 
1852 2 2.41736 0.735496 -5.45127 
1502 2 3.50952 1.28461 -5.91025 
118 1 2.57664 1.69324 -5.03463 
1226 2 4.07986 1.429 -5.43836 
1210 2 4.64442 1.25509 -4.57668 
138 1 4.48135 0.519226 5.93999 
22 1 5.0951 0.525467 -5.04256 
1696 2 5.42615 1.73162 -4.51466 
1225 2 4.8218 1.73114 -5.30535 
1717 2 -5.6149 2.60301 5.8181 
1861 2 -5.10612 2.66513 -5.38866 
755 1 -5.46293 3.30144 -4.56781 
1800 2 -4.41865 2.61073 -5.00159 
1431 2 -4.51399 2.98698 -5.89824 
815 1 -2.57766 2.62121 -5.93621 
752 1 -3.44054 2.28192 -5.82242 
824 1 -2.27922 2.05289 -4.56091 
852 1 -1.14863 3.12494 -5.65732 
1015 1 -1.91658 2.59975 -5.32685 
1212 2 -1.01853 2.21225 5.86035 
1058 2 -0.132404 2.41422 5.71722 
1222 2 -1.00482 1.75715 -5.34366 
1054 2 -0.089756 2.10108 -5.36809 
552 1 -0.338072 3.24503 -5.63144 
1085 2 1.54525 2.71789 -5.2492 
1322 2 0.701326 2.61995 -5.53959 
1653 2 2.40103 3.23794 -5.57967 
780 1 2.84431 2.10542 -5.84647 
439 1 3.492 2.27762 -5.44277 
869 1 4.18787 2.75561 -5.74745 
382 1 3.40455 2.07544 -4.60231 
188 1 4.38897 2.49404 -5.02589 
96 1 5.61872 3.02703 -4.6111 
1470 2 5.96597 2.07643 -5.24508 
926 1 -4.51398 3.5597 -4.59245 
1207 2 -5.59248 4.64549 -5.04118 
676 1 -5.20623 3.73879 -5.45931 
923 1 -4.30905 4.17295 -5.16335 
369 1 -3.61711 4.05942 -4.64983 
577 1 -2.744 4.21219 -4.38551 
1938 2 -3.76279 3.33981 -5.62857 
1959 2 -2.83953 3.32226 -4.96283 
1336 2 -1.75256 4.00902 -5.52264 
1824 2 -0.83392 4.13497 -5.0501 
1476 2 -1.14559 4.28759 5.92682 
491 1 0.0209662 3.65917 5.60249 
1756 2 0.147968 4.46642 -4.96033 
956 1 0.19162 3.21958 -4.94836 
1692 2 -0.374365 4.57768 -5.83805 
716 1 1.76087 4.13977 -5.7141 
501 1 2.67355 4.47786 -5.55905 
394 1 1.17105 3.61121 -4.95878 
653 1 2.02515 4.08699 -4.92034 
1274 2 3.37612 3.46413 -5.37561 
432 1 3.38896 4.50765 -4.98914 
1002 1 3.26761 4.95498 -5.90285 
1562 2 4.10146 3.58264 -4.85729 
1146 2 3.91545 4.27158 5.39394 
762 1 5.1089 2.87265 -5.15397 
178 1 5.86844 3.45903 -5.62035 
1779 2 4.90194 3.72851 -4.79779 
1618 2 5.36099 4.28952 -5.34067 
1088 2 -4.45235 5.08098 -4.80637 
1316 2 -5.842 4.89489 5.98742 
1073 2 -3.64208 5.07681 -4.33476 
1365 2 -2.91397 5.20992 -3.86142 
1376 2 -4.98199 5.18717 -5.69183 
1989 2 -3.68317 5.43081 -5.16828 
2029 2 -2.88106 5.60321 -4.70983 
123 1 -2.70209 4.74955 -5.4279 
797 1 -0.702488 5.54942 -5.43815 
836 1 -1.17703 5.04822 -5.00001 
1013 1 0.234286 5.90477 -5.43357 
340 1 -0.167522 5.4777 -4.76145 
1354 2 0.619019 4.99558 -5.79708 
1607 2 1.08443 4.74167 -4.96147 
1145 2 1.60949 5.35448 -5.50014 
1901 2 3.24638 -5.90935 -5.57365 
1764 2 2.47942 5.52416 -5.58665 
1090 2 3.48724 5.68733 -4.6022 
255 1 4.04863 5.05526 -5.48481 
399 1 4.40244 5.60659 -5.96591 
181 1 5.01541 5.49948 -5.45352 
961 1 5.88437 5.60145 -5.06958 
1699 2 -5.77531 -5.52948 -3.66717 
1931 2 -4.25328 -4.61893 -4.16136 
1203 2 -4.81811 -5.26461 -3.40644 
274 1 -3.54695 -5.55552 -4.48033 
147 1 -2.88679 -5.40929 -3.94837 
1411 2 -4.05447 -5.07271 -3.30165 
1617 2 -3.47482 -4.4589 -3.74495 
1534 2 -4.68097 -5.55969 -2.59079 
805 1 -3.09709 -5.9108 -3.25767 
467 1 -2.11864 -5.23518 -3.67074 
902 1 -1.62456 -4.64715 -4.68791 
497 1 -1.16152 -4.78593 -4.03229 
1551 2 -0.886308 5.92516 -3.27498 
1151 2 -0.646449 -5.62781 -4.09697 
1747 2 0.245822 -5.2602 -4.31543 
1818 2 -0.0459087 -5.75746 -3.44293 
1503 2 0.901767 -4.79928 -4.88238 
1828 2 1.15087 -5.05364 -4.10464 
43 1 1.90981 5.94643 -4.21988 
64 1 2.79089 -5.88364 -3.67168 
2004 2 2.54013 -4.57188 -4.26877 
931 1 2.79723 -5.48561 -4.64898 
1915 2 2.10754 -5.06743 -3.65921 
180 1 3.63946 -5.28511 -4.17696 
131 1 3.48424 -5.79593 -3.15589 
1875 2 5.26803 -5.7133 -4.02252 
284 1 4.86972 -4.83944 -3.66848 
242 1 5.15538 -4.506 -4.40856 
809 1 -5.29529 -3.89936 -4.03765 
273 1 -4.60321 -3.84408 -3.43349 
75 1 -4.37329 -3.53595 -4.36534 
441 1 -3.27454 -3.63939 -2.98023 
196 1 -3.72153 -3.40707 -3.88559 
1581 2 -2.94043 -4.04853 -4.33935 
1197 2 -2.22204 -3.75791 -4.34949 
1711 2 -2.53557 -4.32245 -3.61417 
227 1 -0.481598 -4.33301 -4.34684 
1515 2 -1.77317 -3.28067 -5.02563 
1848 2 -1.78102 -3.95226 -3.62121 
107 1 0.0536924 -4.44381 -3.87235 
416 1 0.329047 -3.87887 -4.58915 
1881 2 -0.52379 -3.5154 -3.45255 
569 1 0.908892 -4.11491 -3.74757 
547 1 1.95175 -3.68207 -3.90573 
2017 2 3.41591 -4.31649 -3.84607 
2019 2 4.03058 -3.5613 -4.64388 
1657 2 4.17601 -3.85904 -3.7205 
1995 2 4.80709 -3.44519 -4.16482 
1705 2 5.6101 -3.29101 -3.99551 
280 1 5.75777 -4.4796 -3.57146 
1887 2 5.06162 -3.6626 -3.36992 
1491 2 -4.84358 -2.5156 -4.01091 
1465 2 -4.44436 -2.91505 -3.16697 
1937 2 -5.48483 -3.02044 -3.49588 
1902 2 -3.96857 -2.37677 -3.72409 
1478 2 -2.72777 -1.91083 -3.89002 
465 1 -3.02445 -3.06589 -3.78335 
595 1 -2.3312 -2.81254 -4.19026 
150 1 -1.82225 -2.92978 -3.4175 
411 1 -1.4063 -2.50447 -4.03431 
1698 2 0.15465 -2.71475 -4.77901 
1894 2 -1.18117 -3.48019 -4.27402 
1533 2 0.57032 -3.04398 -3.76285 
313 1 -0.123504 -2.70547 -2.68224 
1231 2 -0.234237 -3.21992 -4.16013 
1580 2 1.3035 -2.87771 -3.36069 
485 1 2.55539 -3.20359 -4.23484 
1190 2 1.88887 -2.36918 -3.96795 
1263 2 2.94694 -1.95408 -3.67158 
1001 1 3.00265 -3.39546 -3.51367 
277 1 3.40655 -2.73783 -4.15231 
475 1 4.12836 -2.81443 -3.6393 
161 1 4.55291 -2.36424 -4.23881 
179 1 5.46194 -2.17285 -3.67769 
784 1 -5.32945 -1.6425 -3.52874 
205 1 -5.30318 -1.40617 -4.51244 
1163 2 -5.74238 -0.671938 -3.5889 
212 1 -3.71644 -0.892587 -4.28643 
117 1 -4.64272 -1.33882 -4.03185 
948 1 -3.36459 -0.968521 -3.55472 
1097 2 -2.0222 -1.77085 -3.41997 
214 1 -2.55726 -0.838915 -3.3633 
1975 2 -1.67881 -1.42587 -4.22238 
2032 2 -0.951584 -1.27374 -3.54571 
1271 2 -0.739512 -0.765503 -4.46835 
1573 2 -0.252383 -1.50222 -2.83159 
236 1 -0.479124 -2.3921 -3.35108 
1223 2 -0.0665569 -1.0437 -3.65558 
677 1 0.0950711 -1.90564 -4.06584 
599 1 0.94875 -1.66274 -3.97021 
287 1 1.22105 -1.96968 -2.96083 
421 1 1.86807 -1.54913 -3.32746 
1982 2 2.56611 -1.80734 -4.51352 
916 1 1.62119 -1.28119 -4.0696 
125 1 3.0784 -0.556382 -3.85312 
1128 2 3.51888 -1.43452 -4.30037 
1257 2 4.27943 -1.31275 -4.00595 
1738 2 3.8051 -1.82223 -3.43705 
999 1 -5.9073 -1.64604 -4.08727 
1299 2 5.60208 -0.582852 -4.17012 
1286 2 5.09745 -1.06466 -3.6968 
1118 2 -5.87661 -0.506066 -4.87654 
1775 2 -5.2377 -0.311065 -4.12437 
708 1 -5.90884 0.551777 -3.57133 
1030 2 -4.20786 0.0297617 -3.93486 
1792 2 -3.39202 0.273553 -3.72659 
848 1 -1.885 -0.273841 -4.20708 
833 1 -2.71907 -0.631646 -4.25866 
1104 2 -2.59306 0.386739 -3.82484 
1830 2 -2.08015 0.388334 -3.13481 
789 1 -1.44875 -0.414539 -3.3277 
594 1 -1.03642 -0.00636883 -3.91277 
1500 2 1.31951 -0.156554 -4.63358 
80 1 1.16042 0.572412 -3.32555 
517 1 0.0589886 0.349516 -3.90214 
1570 2 0.569842 0.0265984 -5.24247 
1644 2 1.94352 -0.0111159 -3.99504 
2041 2 2.26651 0.276754 -4.60944 
1952 2 2.941 0.298936 -3.54579 
1529 2 3.78633 0.680909 -3.64019 
900 1 3.27114 -0.297682 -4.74611 
241 1 3.39192 -0.808357 -2.9436 
195 1 4.3344 0.259777 -5.06009 
866 1 5.1635 0.257024 -4.13746 
715 1 4.02644 -0.412951 -3.58816 
818 1 -5.48081 0.798581 -4.23579 
397 1 5.92187 0.751361 -4.78146 
1953 2 -5.9113 1.48231 -3.15762 
164 1 -4.59916 1.19056 -4.64882 
921 1 -3.83156 1.24803 -4.00934 
299 1 -4.65165 1.07805 -3.67539 
310 1 -3.14317 1.714 -4.46458 
1754 2 -1.88411 0.836516 -4.04214 
613 1 -2.02074 1.90045 -3.63322 
1256 2 -0.822954 1.38809 -4.59486 
2001 2 -1.12702 1.00708 -3.66319 
1876 2 -2.60414 1.08217 -5.42932 
827 1 0.685571 0.681421 -4.28142 
1999 2 -0.228293 1.22851 -3.47836 
1298 2 -0.0793411 1.69708 -4.15693 
401 1 1.5443 0.841541 -4.03622 
1884 2 0.929074 1.74901 -3.88057 
551 1 2.03477 1.40372 -4.46804 
895 1 2.82385 1.60706 -4.02977 
842 1 2.19008 1.19895 -3.56998 
1314 2 2.97583 0.59446 -4.26206 
2027 2 3.78953 1.11924 -4.4582 
447 1 3.59723 1.73424 -3.76839 
1059 2 4.86619 0.965499 -3.06792 
1320 2 5.31547 1.50089 -3.70545 
1172 2 -5.81344 1.83147 -4.09991 
1986 2 4.63501 1.03058 -3.76904 
1403 2 -5.26612 2.14463 -4.65811 
396 1 -5.81528 2.7711 -3.81237 
1068 2 -5.12347 1.97335 -3.41725 
882 1 -4.96722 3.09534 -3.82653 
1512 2 -4.35989 2.3068 -4.21455 
1092 2 -4.2693 2.03223 -3.32279 
1415 2 -3.46201 2.61513 -4.05491 
1794 2 -3.61871 2.96474 -4.88487 
1175 2 -2.49011 2.96856 -4.15686 
709 1 -1.26449 2.79818 -4.89305 
982 1 -1.23412 1.95288 -3.10748 
903 1 -1.30179 2.20086 -4.05421 
1304 2 -1.84164 3.18343 -3.61617 
56 1 -0.510743 2.71507 -4.5412 
593 1 -0.510245 2.43282 -3.71706 
1506 2 0.453525 1.98189 -4.77838 
885 1 0.388148 2.49138 -3.34366 
448 1 1.15594 3.25778 -4.04844 
1967 2 1.19108 2.22651 -4.55046 
1461 2 2.44094 2.78545 -4.73995 
1158 2 2.54676 2.50816 -3.68654 
1769 2 3.32705 2.74592 -3.62214 
1214 2 3.24321 3.12117 -4.55676 
2020 2 4.10058 2.89606 -3.02594 
726 1 4.33269 2.27421 -4.11852 
1065 2 3.28929 2.50279 -2.72448 
7 1 5.0403 2.55453 -3.99202 
702 1 5.20451 2.33301 -3.10776 
1977 2 -5.54261 4.10778 -3.96603 
1311 2 -4.98452 4.58689 -4.45605 
1278 2 -4.29938 4.65083 -3.83298 
298 1 -4.07553 3.46756 -3.79161 
204 1 -3.26688 3.77021 -3.69383 
1142 2 -2.0463 3.54054 -4.77661 
45 1 -2.08243 4.28138 -4.00589 
221 1 -1.36473 4.38377 -3.38743 
568 1 -2.48146 3.9358 -3.26573 
1378 2 -1.22069 3.57521 -4.23769 
733 1 -1.40147 4.60164 -4.17947 
1593 2 -0.420956 4.00986 -4.29314 
1267 2 -0.67511 3.50282 -3.4997 
1869 2 0.21894 3.84917 -3.63874 
76 1 0.345387 2.84988 -4.12226 
2040 2 0.80993 4.43062 -4.20645 
896 1 1.93327 3.49817 -4.35366 
1042 2 1.45156 4.49812 -3.92826 
262 1 2.86831 4.21998 -4.49575 
143 1 1.94612 3.36761 -3.40503 
370 1 2.74656 3.6506 -3.80726 
440 1 4.62414 4.66322 -3.9885 
1016 1 3.8256 4.48737 -4.35704 
2039 2 4.24087 3.27932 -3.92616 
1349 2 4.94523 3.65999 -3.93866 
1105 2 4.77896 3.34824 -3.2075 
1072 2 5.71468 4.23012 -4.45169 
1670 2 5.67523 3.73702 -3.4644 
14 1 -4.9015 5.63842 -3.84306 
918 1 -5.20739 5.92803 -4.96742 
443 1 -5.60297 5.39973 -4.25995 
1527 2 -3.46698 4.75681 -3.3422 
825 1 -3.89757 5.91159 -3.66791 
1138 2 -2.24473 5.53509 -4.08829 
1417 2 -2.41085 4.94013 -3.07882 
1510 2 -1.61481 5.3255 -3.48805 
1329 2 -1.37628 5.90984 -4.47991 
323 1 -2.05669 4.66123 -4.83498 
17 1 -0.569671 5.04393 -4.09575 
41 1 0.815037 5.75231 -4.66682 
638 1 0.266763 5.14659 -3.67019 
165 1 -0.436997 4.64776 -3.30999 
959 1 1.25393 -5.75513 -5.33784 
1499 2 1.87741 4.94007 -4.55677 
736 1 1.24609 5.60979 -3.87863 
1926 2 2.57123 4.8663 -3.78657 
1847 2 2.59105 5.31978 -4.73495 
871 1 1.94588 5.47971 -3.33792 
166 1 4.42843 4.82751 -4.77932 
1846 2 4.19118 5.62426 -4.17009 
1854 2 3.38856 5.21858 -3.92126 
946 1 5.51021 4.95262 -3.78079 
835 1 5.15552 5.18492 -4.62898 
1405 2 4.7972 5.61182 -3.37611 
153 1 -5.51083 -4.83344 -2.4837 
2016 2 -5.44105 -5.86448 -2.91214 
1548 2 -4.45774 -5.78186 -1.74491 
2000 2 -3.82012 -5.26627 -2.42652 
1285 2 -3.36815 -5.26467 -1.81894 
974 1 -2.38811 5.91619 -2.09169 
229 1 -2.31037 -5.83074 -2.87503 
1425 2 -3.10215 -4.76147 -2.93792 
1014 1 -1.40175 -5.09936 -3.15504 
1394 2 -1.82358 -4.72342 -1.84905 
459 1 -0.536176 -5.31567 -2.49193 
672 1 -0.453126 -4.74412 -3.25976 
305 1 0.208153 -4.96972 -2.27378 
1957 2 0.869983 -5.41153 -3.4795 
1749 2 1.21388 -5.59557 -2.26377 
1530 2 1.57703 -5.46724 -3.00796 
1765 2 2.56732 -5.13863 -2.44521 
1592 2 2.84138 -4.81082 -3.26877 
19 1 3.73943 -5.76202 -2.40949 
878 1 4.21006 -5.51441 -3.40043 
798 1 5.64518 -5.03422 -2.81274 
955 1 4.83264 -5.19836 -2.92716 
1318 2 5.678 5.83101 -3.11097 
339 1 -5.27867 -4.23001 -3.09637 
1319 2 5.95309 -3.92416 -1.86704 
1851 2 -4.44047 -3.16938 -2.02566 
504 1 -3.93962 -4.11826 -1.93259 
524 1 -4.16629 -4.15748 -2.66239 
71 1 -3.11951 -4.07238 -2.10088 
402 1 -2.55834 -3.21826 -3.15072 
816 1 -2.35955 -3.78656 -1.56901 
1602 2 -2.04553 -4.37284 -2.65464 
1991 2 -1.04127 -3.96767 -2.97937 
260 1 0.428943 -4.65963 -3.05133 
1896 2 0.266364 -3.57645 -3.23891 
1748 2 -0.141095 -3.91497 -2.49316 
934 1 1.17836 -4.61485 -2.54837 
249 1 1.74264 -4.12811 -3.14835 
1942 2 0.675221 -3.74601 -2.11014 
1019 1 2.47295 -3.82345 -3.06829 
954 1 2.04011 -4.32412 -2.31388 
245 1 3.07694 -3.81499 -2.42364 
981 1 4.04666 -3.44305 -2.13349 
1232 2 3.56515 -4.55518 -2.88244 
1737 2 4.43125 -4.05386 -2.88276 
1483 2 5.82477 -3.48256 -2.95403 
1750 2 5.2314 -4.01167 -2.42521 
1817 2 -5.24425 -3.37308 -2.55843 
532 1 -5.78351 -2.19947 -2.9692 
548 1 -5.3143 -2.37323 -2.37321 
2007 2 -3.77291 -2.83288 -2.54241 
1545 2 -3.09597 -2.19149 -3.16558 
636 1 -3.78795 -1.74421 -2.2276 
1993 2 -3.33942 -3.06913 -1.5964 
388 1 -2.42027 -3.47193 -2.50625 
1442 2 -3.05411 -2.59225 -2.26742 
1911 2 -2.2771 -2.10136 -2.73025 
1537 2 -2.34017 -2.50271 -1.8965 
875 1 -1.14507 -2.88166 -2.94637 
398 1 -1.68818 -3.22927 -2.37585 
1781 2 -1.46132 -2.21673 -2.22766 
998 1 -0.700194 -3.02391 -2.1591 
844 1 0.384817 -2.18381 -3.1938 
986 1 0.695924 -2.36714 -2.38807 
1658 2 0.99442 -3.4156 -2.78008 
1457 2 1.84198 -2.92931 -2.63141 
597 1 1.39752 -2.2719 -1.91511 
1947 2 2.39849 -2.55383 -3.146 
1787 2 3.19313 -2.38715 -2.73306 
1878 2 2.65012 -2.90891 -2.21961 
661 1 3.63205 -3.22744 -2.93913 
754 1 4.4934 -2.91037 -2.66494 
914 1 4.89409 -2.55811 -3.22179 
550 1 5.46274 -2.48811 -2.42819 
917 1 -4.66002 -1.85651 -2.85819 
2035 2 -5.33286 -0.942957 -2.83912 
1279 2 -5.77656 -1.31837 -2.21778 
344 1 -4.08038 -1.43426 -3.32792 
291 1 -3.15147 -1.34009 -2.63736 
1978 2 -4.15044 -0.632645 -2.41388 
717 1 -2.32385 -1.09071 -2.39427 
37 1 -2.84258 -1.50115 -1.90206 
1867 2 -1.19041 -1.75584 -2.88692 
1456 2 -0.523113 -1.9422 -1.96194 
499 1 -1.52836 -0.695236 -2.52974 
252 1 -0.963314 -1.02406 -1.54232 
1345 2 0.473996 -1.00272 -2.97637 
1673 2 0.328388 -1.44944 -2.112 
1057 2 1.04408 -0.540631 -3.79474 
1804 2 1.18658 -0.998011 -2.20906 
2046 2 1.44735 -0.733646 -3.04981 
705 1 2.0548 -1.7839 -2.36819 
427 1 2.50657 -1.02739 -3.64275 
640 1 3.0916 -1.409 -2.01141 
700 1 2.68131 -1.27879 -2.76972 
42 1 3.95692 -0.993458 -2.14045 
1641 2 4.06988 -1.98819 -2.65741 
297 1 4.53188 -0.500326 -2.7415 
1237 2 5.55986 -1.14147 -3.08364 
1492 2 5.1864 -1.60702 -2.33855 
1148 2 4.66318 -1.49007 -3.09701 
958 1 -5.03914 0.579727 -2.96406 
654 1 -4.82366 0.0921783 -2.01321 
32 1 -5.71321 0.0767103 -2.6263 
1350 2 -4.77695 -0.371629 -3.26352 
1184 2 -3.76513 -0.133425 -3.09816 
1206 2 -3.35941 -0.379945 -2.30232 
969 1 -3.84437 0.342495 -1.67479 
1025 2 -2.90267 -0.0206068 -3.05785 
1643 2 -1.73662 0.413819 -2.26107 
630 1 -0.719078 -0.458274 -2.50296 
615 1 -0.46025 -0.0362661 -3.18649 
886 1 0.103656 -0.336748 -2.3372 
1021 1 0.848057 0.178468 -2.45937 
776 1 0.445978 0.0784354 -3.23909 
90 1 1.94923 0.789732 -2.94212 
1963 2 2.13653 -0.176741 -3.1907 
1832 2 2.79909 -0.22263 -2.45137 
1505 2 3.39094 0.16555 -2.90777 
1220 2 4.20563 0.611686 -2.87167 
278 1 5.54787 0.0436356 -3.13461 
912 1 4.79283 -0.0567274 -3.3482 
518 1 5.2574 -0.308495 -2.46659 
1777 2 -4.66472 1.57547 -2.52553 
1361 2 -5.46572 1.42949 -2.4596 
489 1 -4.2828 0.593889 -2.54176 
1282 2 -3.79305 1.78067 -2.31457 
686 1 -4.00053 1.05619 -3.12258 
494 1 -3.12688 1.43386 -3.59756 
189 1 -3.21461 0.91963 -2.70159 
240 1 -2.3839 1.37014 -2.96873 
1550 2 -1.12763 0.664993 -2.76049 
719 1 -1.58237 1.61573 -2.28377 
1962 2 0.520339 1.30754 -2.99803 
1683 2 -0.0547352 0.866021 -2.48342 
1187 2 0.709227 1.0088 -1.89482 
1050 2 1.34522 1.53566 -2.61373 
1642 2 1.92886 2.37067 -4.18419 
1386 2 2.0157 1.73271 -2.05414 
894 1 3.33528 1.47372 -3.03893 
408 1 2.66125 1.0717 -2.70959 
621 1 3.35587 1.15678 -2.17155 
194 1 3.79048 1.12464 -1.3646 
760 1 4.04983 1.59016 -2.36721 
574 1 4.35965 1.94459 -3.20177 
1468 2 4.74788 0.553273 -2.08742 
2030 2 5.50007 0.924794 -2.53002 
944 1 4.45841 1.52718 -1.64966 
631 1 -4.78984 3.03836 -2.95385 
811 1 5.75431 2.12955 -2.09911 
171 1 -5.71702 2.57501 -2.92807 
446 1 -5.31533 2.35689 -2.04644 
460 1 -3.91083 3.06274 -2.99823 
2021 2 -2.76838 2.18392 -2.3791 
1485 2 -3.39097 2.07066 -2.99542 
1247 2 -2.76123 2.61092 -3.39836 
751 1 -3.46872 2.98274 -2.158 
301 1 -0.679785 1.71695 -2.44397 
1689 2 -1.91973 2.64057 -2.75883 
208 1 0.620156 2.25092 -2.27578 
561 1 -0.213239 2.22293 -2.82898 
478 1 1.25038 2.94584 -3.15394 
1071 2 0.217815 3.30656 -1.86239 
1983 2 -0.512815 3.12537 -2.36511 
937 1 1.54854 2.81576 -2.084 
1825 2 2.52045 2.17759 -2.78765 
906 1 2.36637 3.12111 -2.35224 
1681 2 1.60812 2.01219 -3.32054 
1686 2 4.57177 3.08029 -2.23879 
1554 2 4.62077 2.7141 -1.54526 
1134 2 3.80686 2.56652 -2.13272 
731 1 4.8886 1.9782 -2.30487 
1786 2 5.4463 3.33311 -2.67734 
1636 2 -5.66281 3.65841 -2.70991 
1662 2 -5.00525 4.1412 -3.29809 
879 1 -3.18729 3.39629 -2.84738 
1335 2 -4.2847 4.18935 -2.9897 
1419 2 -3.22411 4.07737 -1.69141 
111 1 -2.55652 3.37586 -2.26938 
322 1 -2.14116 3.2933 -1.50566 
1339 2 -2.42442 4.40414 -1.85672 
772 1 -1.83219 3.95377 -2.61038 
418 1 -1.03238 4.1271 -2.68938 
1183 2 -1.12503 3.0823 -2.90719 
1668 2 0.0694701 3.38909 -2.86701 
985 1 1.06232 4.86386 -2.14459 
1625 2 0.784151 3.61015 -2.30482 
1997 2 1.07422 3.99055 -3.05412 
1406 2 1.33578 3.62411 -1.47332 
1974 2 1.7793 4.02398 -2.0852 
1268 2 2.03894 4.3572 -3.20958 
641 1 3.1233 3.53611 -2.87366 
1428 2 2.76562 4.45258 -2.51873 
650 1 3.60934 3.95521 -3.59459 
437 1 4.43634 4.29076 -3.15602 
690 1 3.89223 3.82809 -2.64842 
582 1 5.26364 4.57457 -3.00646 
258 1 4.94198 4.15236 -2.24869 
993 1 5.94601 4.62737 -2.57004 
742 1 -5.52087 5.03459 -3.38938 
453 1 -4.73454 5.2145 -3.03627 
13 1 -5.11017 5.03959 -2.31548 
1612 2 5.86303 5.65791 -2.29531 
1048 2 -3.71071 4.21585 -2.48515 
662 1 -4.03394 5.67414 -2.85297 
579 1 -4.1969 5.1297 -2.24947 
1008 1 -3.20763 5.63728 -2.56203 
1413 2 -2.98962 4.5669 -2.517 
1127 2 -2.01343 4.95296 -2.39455 
1575 2 -1.27971 5.44726 -2.61277 
1191 2 -1.33134 4.92341 -1.85849 
564 1 0.378196 4.68415 -2.89577 
1353 2 -0.368309 5.45791 -2.65034 
1928 2 0.488895 -5.92127 -2.86687 
498 1 1.09436 5.10524 -3.0681 
361 1 1.7949 5.26505 -2.61377 
516 1 2.58827 5.67715 -2.6638 
1161 2 3.22305 4.81772 -3.09263 
343 1 2.35785 5.15621 -1.89511 
2015 2 3.65092 4.80204 -2.16014 
1234 2 3.99092 5.22664 -3.35461 
1489 2 4.22753 5.20653 -2.37678 
1362 2 5.03408 5.4039 -2.48916 
991 1 -5.83808 -5.08667 -1.5788 
1126 2 -5.42929 -5.89615 -1.92169 
864 1 5.79559 -5.51756 -0.996772 
248 1 -5.01296 -5.04323 -1.23238 
269 1 -4.77 -4.56399 -2.10078 
1047 2 -3.78825 -5.85652 -1.22783 
1477 2 -2.63636 -5.39703 -1.36883 
890 1 -3.43855 -4.87626 -0.610977 
1272 2 -4.03467 5.7971 -0.470715 
1046 2 -2.67919 -4.99181 -2.25506 
1079 2 -1.78744 -5.07423 -1.15801 
1613 2 -0.965246 -4.57325 -1.22578 
326 1 -1.48006 -5.59928 -2.22161 
184 1 -0.75575 -5.53792 -1.6462 
203 1 -0.0127214 -5.2541 -1.50177 
295 1 1.02041 -4.78116 -1.7304 
455 1 1.72404 -4.50504 -1.39588 
1611 2 1.91347 -5.62915 -1.92028 
693 1 0.610453 -5.32876 -0.996656 
1859 2 3.51406 -4.85304 -2.13074 
1864 2 2.78303 -5.30428 -1.60856 
1521 2 3.49555 -5.23416 -1.0124 
847 1 4.63228 -5.61626 -2.25849 
1844 2 4.60261 -4.88039 -0.827664 
1487 2 4.08835 -4.78615 -1.51684 
724 1 5.37148 -5.31689 -1.92739 
586 1 4.86344 -5.64867 -1.39247 
1655 2 -5.0765 -3.79143 -1.51521 
1871 2 5.46358 -4.31697 -1.10425 
2010 2 -4.52288 -3.80182 -0.836921 
251 1 -4.13004 -4.72182 -1.34878 
1119 2 -3.97919 -3.33924 -1.1783 
634 1 -3.10627 -4.3415 -1.23541 
753 1 -2.27743 -4.31754 -0.886626 
366 1 -1.50038 -3.9123 -0.741971 
1535 2 -0.96874 -4.32091 -2.1883 
324 1 -1.4149 -3.60099 -1.50808 
1812 2 -0.160404 -4.25085 -1.66277 
1922 2 0.517566 -3.96079 -1.2207 
600 1 0.205263 -3.13058 -0.691244 
1381 2 1.43104 -3.6461 -1.29316 
1066 2 1.60298 -3.45014 -2.08099 
1973 2 2.24766 -3.14956 -1.49125 
257 1 2.54512 -4.57225 -1.00615 
328 1 2.72964 -4.02353 -1.72368 
602 1 3.33522 -4.25525 -0.790813 
321 1 4.29017 -3.60495 -1.18457 
352 1 3.52936 -3.87134 -1.63098 
1129 2 4.27121 -4.55785 -2.34073 
1836 2 4.85854 -4.51536 -1.6758 
522 1 4.82583 -3.87011 -0.170504 
767 1 -5.20017 -2.75569 -1.22907 
734 1 5.91329 -3.09543 -0.873395 
99 1 -4.56066 -2.12839 -1.92973 
167 1 -4.30721 -2.28197 -1.06048 
1077 2 -3.27773 -3.43177 -0.815738 
1908 2 -2.55508 -2.88965 -1.12885 
1216 2 -1.92523 -2.89777 -0.576055 
1574 2 -0.784492 -2.26973 -0.987163 
1052 2 -1.63509 -2.43578 -1.36474 
1177 2 -0.0678137 -2.22576 -0.465943 
246 1 -0.612266 -3.31247 -1.38078 
573 1 0.328692 -2.84796 -1.75205 
106 1 0.999295 -2.74636 -1.31778 
11 1 1.08856 -2.8383 -0.527381 
377 1 1.96182 -2.31894 -1.08843 
1708 2 3.21545 -2.78874 -1.45546 
1167 2 3.70848 -2.421 -1.98226 
691 1 2.45869 -1.89717 -1.69841 
867 1 2.66186 -2.42271 -0.507246 
1645 2 4.06303 -2.52896 -1.21287 
1156 2 4.51407 -2.10455 -1.80069 
1262 2 3.71466 -3.01752 -0.556658 
311 1 4.92125 -2.99761 -1.90035 
140 1 5.90223 -2.85642 -1.82121 
968 1 5.16657 -3.34835 -0.991905 
1996 2 4.88913 -2.53908 -0.458541 
1940 2 5.96032 -1.738 -1.52539 
2005 2 -5.00195 -1.43217 -1.34153 
1174 2 -4.84048 -1.05344 -2.07903 
1310 2 -4.01563 -0.801591 -1.48958 
177 1 -3.54792 -1.95148 -1.37708 
1352 2 -4.36237 -1.19902 -0.894926 
963 1 -2.75704 -1.81571 -1.08602 
682 1 -1.9578 -1.54255 -0.845477 
234 1 -1.92775 -1.30385 -1.60414 
271 1 -1.15477 -1.32278 -0.722169 
1635 2 0.113856 -1.84139 -1.35651 
121 1 -0.0878535 -0.686112 -1.56956 
502 1 0.71226 -0.665125 -0.77702 
1517 2 0.93455 -1.46128 -1.50955 
1568 2 2.0144 -0.652343 -2.35383 
1682 2 1.75666 -1.03161 -1.50926 
846 1 3.22317 -1.88834 -1.02639 
1266 2 2.63127 -0.592357 -1.61225 
116 1 3.82798 -1.38933 -1.42772 
566 1 4.02234 -1.70849 -0.540159 
1445 2 5.18348 -1.96605 -1.19529 
626 1 4.5779 -1.17676 -1.21898 
962 1 4.82052 -0.73924 -1.86845 
279 1 5.84392 -0.40602 -1.79753 
983 1 5.6442 -0.792522 -1.02481 
198 1 -5.10592 -0.34916 -1.25425 
737 1 -4.26163 0.00356391 -1.02886 
222 1 -5.51705 -0.727066 -0.721094 
692 1 -3.50123 0.45709 -0.84989 
1432 2 -2.50723 -0.0376929 -2.32568 
1337 2 -3.10205 -0.616058 -1.25337 
1893 2 -2.30986 -0.379577 -1.54126 
1834 2 -0.68452 0.440429 -2.01462 
1972 2 -1.55027 0.0584969 -1.41229 
1589 2 -0.90329 0.105596 -0.923732 
625 1 0.674904 -0.248366 -1.58211 
749 1 1.70165 0.418873 -2.11215 
243 1 1.65045 -0.079291 -1.43014 
601 1 2.36312 0.239085 -1.00169 
1149 2 0.983815 0.679736 -1.13511 
783 1 2.42389 0.618016 -1.93233 
1858 2 3.84121 0.266475 -2.18801 
430 1 3.33913 0.337575 -0.600375 
1659 2 3.4528 -0.243804 -1.67441 
1819 2 3.88062 -0.430785 -1.02731 
1360 2 4.30509 0.210491 -1.44866 
1654 2 -5.89687 0.841243 -1.80946 
1045 2 5.17582 0.279849 -1.48104 
1229 2 5.44352 -0.0176728 -0.424234 
1564 2 4.74092 -0.298322 -0.802227 
1000 1 -5.52362 1.9597 -1.23804 
1622 2 -5.80833 0.384 -0.902704 
1679 2 -4.98221 0.73759 -0.857795 
1803 2 -5.18217 1.00213 -1.69083 
1839 2 -4.30298 1.44483 -1.60431 
1728 2 -4.2273 1.18599 -0.793492 
472 1 -3.12564 0.695032 -1.8726 
910 1 -2.46758 1.17741 -2.03533 
1520 2 -2.68084 1.72888 -1.0084 
823 1 -0.861068 1.50084 -1.63524 
115 1 -1.70504 1.11088 -1.46682 
44 1 -1.08314 1.21067 -0.820211 
1436 2 -0.0927758 0.485989 -1.37203 
660 1 0.0422144 1.82676 -1.77648 
614 1 -0.171199 1.52444 -0.949298 
2043 2 1.42262 1.34758 -1.6983 
1297 2 1.8048 1.12707 -0.917183 
1712 2 2.32401 1.7489 -1.31164 
874 1 2.98842 0.782448 -1.33744 
1994 2 3.03512 2.10082 -1.9038 
50 1 4.14969 0.723117 -0.502736 
1866 2 3.17554 1.76402 -0.981834 
232 1 4.95168 1.20683 -0.974477 
1011 1 5.68571 1.20781 -0.476778 
761 1 5.39279 1.69745 -1.50832 
351 1 -4.59932 2.43694 -1.38561 
1757 2 -4.59243 3.38169 -1.25199 
1627 2 -5.6166 3.08153 -1.09836 
312 1 -4.57989 2.06731 -0.461057 
1439 2 -5.66201 3.4902 -1.85956 
739 1 -4.41631 2.74674 -2.20109 
1727 2 -3.37947 1.68793 -1.68594 
966 1 -2.97295 2.80233 -1.5409 
2047 2 -2.13666 2.09726 -1.61706 
1981 2 -1.39896 2.59645 -2.01808 
1616 2 0.531883 3.13354 -1.01488 
1170 2 -0.569707 2.60704 -1.65023 
775 1 1.96937 2.73178 -1.37843 
747 1 0.724547 1.72901 -1.02709 
828 1 0.972991 2.45336 -1.58801 
124 1 1.54076 2.19586 -0.757155 
256 1 3.45428 3.09645 -0.685771 
34 1 2.70356 3.02507 -1.4702 
183 1 3.35823 3.43392 -2.02508 
843 1 2.63866 2.6262 -0.607572 
1522 2 3.7872 2.25405 -1.30328 
945 1 3.89628 3.43365 -1.34046 
1276 2 4.73484 2.17755 -0.615661 
1330 2 5.46027 3.05541 -1.73041 
1811 2 5.55096 2.58404 -0.926994 
1333 2 -4.79326 3.74897 -2.21234 
355 1 -5.34342 4.55699 -1.5626 
506 1 -5.09794 4.17319 -0.815455 
132 1 -4.25474 4.35277 -0.588639 
1056 2 -3.93668 3.79694 -1.83529 
1992 2 -4.10661 3.24802 -0.522168 
1971 2 -3.35081 3.63241 -0.894067 
381 1 -1.93738 3.02136 -0.421072 
2033 2 -2.61326 4.06546 -1.01135 
26 1 -0.378703 4.3534 -2.39499 
520 1 -1.48841 3.4969 -1.03914 
224 1 -1.26497 3.71359 -1.83745 
1023 1 -0.427105 4.05682 -1.62245 
627 1 0.130828 4.01521 -0.766606 
612 1 0.310679 4.41483 -1.80266 
1610 2 1.45219 3.29133 -0.552873 
1913 2 2.14663 3.92949 -1.12678 
1109 2 3.04671 4.35318 -1.65852 
786 1 4.28536 3.91604 -1.84397 
1351 2 3.6205 4.37023 -0.594626 
952 1 5.64284 4.37021 -1.75459 
379 1 4.98815 3.99609 -1.21722 