ITEM: TIMESTEP
35100
ITEM: NUMBER OF ATOMS
2048
ITEM: BOX BOUNDS pp pp pp
-5.9394935262558164e+00 5.9394935262558164e+00
-5.9394935262558164e+00 5.9394935262558164e+00
-5.9394935262558164e+00 5.9394935262558164e+00
ITEM: ATOMS id type x y z 
1849 2 -4.9562 -4.67737 -4.9953 
514 1 -5.30786 -5.57405 5.84295 
1192 2 -5.74831 -5.04787 -5.07238 
1759 2 -5.7534 -4.55691 -5.82761 
333 1 -4.24576 -5.40996 -5.3356 
5 1 -3.55478 -5.21645 -5.13087 
91 1 -2.89461 -4.99391 -4.86451 
902 1 -2.0471 -4.65183 -4.76302 
1301 2 -2.09043 -5.63328 -5.28378 
1801 2 -1.14817 -5.24556 -5.19338 
1571 2 -0.107839 -4.9388 -5.51126 
1338 2 -0.388992 -5.23339 -4.72318 
1013 1 0.0938368 -5.87672 -5.79198 
1563 2 0.637418 -4.76053 -5.17831 
575 1 0.974982 -5.64787 -5.6113 
223 1 1.9415 -5.46989 -5.32934 
481 1 2.85411 -5.05587 -5.30304 
442 1 3.05244 -4.6377 5.75419 
1239 2 4.2428 -5.68848 -5.61332 
675 1 3.60917 -4.77579 -5.17893 
1799 2 3.29491 -5.8411 -5.68285 
1307 2 5.29533 -4.91129 -5.92596 
1714 2 4.96435 -5.31939 -5.16955 
283 1 -5.4906 -3.63061 -5.40355 
1103 2 -4.77229 -4.36489 -5.83837 
1249 2 -4.14815 -4.32878 -4.95303 
1467 2 -3.20252 -3.88553 -5.63102 
1358 2 -4.06039 -3.94467 -5.76685 
1559 2 -3.41068 -3.96661 -4.86 
1472 2 -2.47692 -3.57243 -5.13195 
3 1 -2.79262 -4.75174 -5.73281 
765 1 -1.95133 -4.29661 -5.66873 
202 1 -1.17198 -4.28029 -4.8993 
1 1 -0.575177 -3.99396 -5.35561 
1495 2 -1.74725 -3.27768 -5.1203 
107 1 -0.393678 -4.25018 -4.30945 
782 1 0.127072 -3.48915 -5.85742 
20 1 0.138503 -3.93178 -5.04102 
819 1 0.990464 -3.53451 -5.40056 
1984 2 2.15127 -4.21658 -5.20802 
136 1 1.4935 -3.60581 -4.66174 
1790 2 1.1431 -4.34763 -5.84111 
1236 2 2.40926 -4.29295 -4.46631 
1260 2 3.06288 -3.89146 -5.0419 
1374 2 2.80758 -3.58705 5.88989 
1341 2 4.5973 -3.22679 -5.19811 
1528 2 3.69762 -3.54029 -5.41231 
49 1 4.07664 -4.45371 -5.76877 
622 1 5.49473 -4.04237 -4.93916 
684 1 4.81564 -4.14566 -5.36873 
857 1 5.30996 -3.82279 -5.83877 
1745 2 -5.45078 -2.46367 -5.47704 
353 1 -4.47039 -3.09169 -5.18074 
1475 2 -4.83332 -2.07034 -5.35929 
218 1 -3.74655 -2.76828 -5.19276 
967 1 -2.14364 -2.27688 -5.1422 
773 1 -2.40291 -2.12527 5.88679 
922 1 -2.84289 -2.66467 -4.83317 
2009 2 -1.37088 -2.75672 -5.59827 
1820 2 -0.681092 -2.40813 5.74454 
1555 2 -0.726017 -2.88441 -5.03189 
1326 2 -0.196319 -2.539 -5.50828 
1923 2 1.43857 -2.18315 -5.13196 
1698 2 0.546732 -2.48257 -5.2115 
939 1 1.71072 -3.17373 -5.32641 
1946 2 1.4401 -1.93064 5.96676 
639 1 2.63107 -2.61018 -5.60878 
485 1 2.45163 -3.02256 -4.85931 
277 1 3.47774 -2.63815 -5.07704 
33 1 4.01848 -2.19592 -5.64684 
385 1 4.48632 -2.26492 -4.95501 
1089 2 5.26335 -2.77192 -5.59983 
1705 2 5.38343 -3.10681 -4.70282 
1929 2 -5.79356 -2.77563 -4.86815 
403 1 -5.52747 -1.27494 -5.20898 
771 1 -4.95248 -0.806404 -5.67211 
1588 2 -3.3532 -1.46771 -5.65165 
212 1 -4.39628 -0.871251 -4.92227 
1296 2 -3.58163 -1.68668 -4.8887 
1171 2 -4.19359 -1.69515 -5.5973 
1713 2 -2.54005 -1.24089 -5.39734 
1414 2 -2.20299 -0.75193 5.67927 
8 1 -0.529378 -1.80487 -4.97118 
1975 2 -1.82402 -0.893887 -5.33633 
741 1 -1.45205 -1.74784 -5.53068 
35 1 0.312096 -1.52778 -4.98876 
657 1 0.461343 -1.18201 -5.71872 
367 1 -0.68188 -1.40465 -5.65394 
830 1 1.19985 -1.00826 -5.61172 
599 1 1.05418 -1.29458 -4.62512 
1982 2 2.71967 -1.73104 -4.63933 
1259 2 2.16349 -1.71134 -5.39263 
916 1 1.87039 -0.857966 -4.9684 
1615 2 3.31675 -1.37644 -5.22813 
1332 2 4.01566 -0.903691 -5.39664 
999 1 5.94038 -1.79357 -4.58637 
480 1 5.3139 -1.72777 -5.29749 
406 1 5.79934 -1.18412 -5.8493 
2036 2 -5.2593 0.361526 -5.78217 
1939 2 -5.1162 0.0130516 -5.11962 
1111 2 -4.32821 0.353667 -5.34332 
348 1 -3.78503 -0.428002 -5.63135 
505 1 -2.99485 -0.336037 -5.11916 
769 1 -3.06339 0.0687575 -5.91043 
374 1 -2.21759 0.185803 -5.57831 
848 1 -2.20136 -0.24531 -4.60614 
1243 2 -0.926383 -0.517309 -5.13039 
704 1 -1.47823 0.334054 -5.01117 
1410 2 -1.36502 -0.429682 5.8449 
1870 2 -0.10677 -0.59972 -4.88969 
1809 2 -0.501331 -0.214759 -5.86351 
1570 2 0.654347 -0.162766 -4.78154 
1631 2 0.410003 -0.0538795 -5.59946 
451 1 -0.592822 0.550042 -4.75082 
1180 2 1.36016 0.0173719 -5.17289 
2008 2 2.16981 0.468352 -4.87909 
872 1 2.52397 -0.422813 -5.5171 
302 1 4.25638 0.22789 -5.10757 
908 1 3.32034 -0.187445 -5.09757 
581 1 3.0531 0.0594452 5.92469 
1118 2 5.87179 -0.376553 -4.96591 
1037 2 5.02016 -0.471382 -5.33162 
138 1 5.03607 0.633448 -5.12188 
1224 2 5.88331 -0.0914361 -5.66412 
230 1 -5.30184 1.36594 -5.41787 
22 1 5.85555 0.957341 -5.21581 
1346 2 -4.39109 0.770229 5.84669 
360 1 -4.53102 1.92865 -5.71161 
1736 2 -3.46509 0.862581 -5.41938 
94 1 -4.48822 1.27329 -4.99099 
697 1 -3.79476 1.88044 -5.29961 
1498 2 -2.31435 1.23745 -5.22145 
1343 2 -2.81931 0.664232 -4.80289 
254 1 -1.35439 0.637447 -5.85332 
1797 2 -1.50437 1.49934 -5.28749 
1058 2 -0.659415 1.8882 -5.54921 
1256 2 -0.820808 1.57247 -4.72765 
244 1 -0.311239 0.854837 -5.5651 
827 1 0.30748 0.727631 -4.70748 
1222 2 0.0354982 1.83303 -5.03684 
570 1 1.46124 1.43937 -5.26544 
63 1 0.581725 0.995776 -5.41289 
1314 2 2.90334 0.705977 -4.99793 
1852 2 2.03901 0.789637 -5.73388 
1502 2 3.08108 1.07676 -5.67459 
118 1 2.52876 1.70475 -5.00303 
1226 2 3.96441 1.44011 -5.6903 
1210 2 3.83109 1.11901 -4.90809 
1696 2 4.58795 1.61797 -5.10192 
1572 2 5.40056 2.01605 -5.28384 
389 1 5.87629 1.3837 5.7537 
1225 2 4.71551 1.94876 5.83581 
1717 2 -5.62744 2.4653 -5.26047 
1861 2 -5.02525 2.85592 -5.63751 
1403 2 -4.55934 2.51803 -4.79345 
1800 2 -3.76032 2.9265 -5.19798 
1431 2 -4.27562 3.18495 -5.87504 
190 1 -3.09678 2.14583 -5.59645 
815 1 -2.30372 2.41094 -5.02131 
752 1 -2.91396 1.87098 -4.61859 
709 1 -1.38606 2.52505 -4.77226 
852 1 -1.71642 2.89044 -5.46524 
1979 2 0.367281 2.36799 -5.85915 
56 1 0.222805 3.22053 -4.89285 
1085 2 1.43807 2.39783 -4.75092 
1054 2 0.787464 2.37329 -5.19318 
1322 2 1.31283 2.62211 -5.76167 
1653 2 2.00009 2.85675 -5.25073 
1214 2 3.013 3.10798 -4.75085 
439 1 2.83786 2.30213 -5.40206 
869 1 3.6796 2.46069 -5.30849 
762 1 4.43019 2.89853 -5.73476 
96 1 4.92082 2.91639 -4.78807 
1810 2 5.82608 2.34557 -5.96693 
755 1 5.88088 3.34137 -4.98815 
97 1 -5.92618 3.65831 -5.8568 
926 1 -5.22952 3.74114 -5.28879 
1088 2 5.88255 4.66745 -5.61532 
1207 2 -5.33667 4.60739 -4.69869 
676 1 -4.55982 4.1747 -5.74627 
923 1 -3.47963 4.13129 -4.84091 
369 1 -4.29798 3.83937 -4.94567 
989 1 -3.61934 4.51274 -5.94485 
1938 2 -3.0858 3.40386 -5.5918 
1959 2 -2.39696 3.86937 -5.4215 
1142 2 -2.10455 3.5336 -4.67558 
577 1 -3.04283 4.74619 -5.22405 
491 1 -0.637932 3.20025 -5.55606 
1336 2 -1.39005 3.82824 -5.0614 
1824 2 -0.979364 4.31389 -5.69203 
1756 2 -0.350379 4.32069 -5.10666 
1607 2 0.488804 4.76756 -5.08342 
716 1 0.213941 3.47112 -5.6472 
956 1 0.936449 3.43264 -5.28619 
76 1 0.967802 3.36541 -4.33614 
501 1 1.35532 4.02424 -5.64371 
394 1 1.70394 3.82809 -4.82215 
653 1 2.71036 4.36894 -5.3256 
1274 2 2.62708 3.35537 -5.56036 
1562 2 3.87372 3.69587 -5.03989 
1640 2 4.44008 3.9526 -5.67304 
1146 2 3.46897 3.75591 -5.87306 
178 1 5.28556 3.25709 -5.58085 
1779 2 4.63897 4.00544 -4.83605 
1618 2 5.06568 4.38786 -5.35986 
1349 2 5.55752 4.35026 -4.7526 
1073 2 -5.09186 5.08772 -5.4248 
699 1 -4.96003 -5.76465 -5.24869 
1365 2 -4.15999 5.11023 -5.09039 
1138 2 -3.50563 5.3855 -4.56919 
2029 2 -3.61263 5.58193 -5.55824 
1526 2 -2.76401 5.83772 -4.89115 
146 1 -1.93288 4.80447 -5.27249 
509 1 -2.84983 4.85639 5.87828 
797 1 -1.37279 5.56524 5.92157 
276 1 -1.13774 5.17078 -5.0732 
1692 2 -0.0729035 4.62562 -5.85541 
340 1 -0.662074 5.62934 -5.53053 
836 1 -0.420407 5.41505 -4.68866 
959 1 0.562628 5.7585 -4.9742 
1145 2 1.80023 5.15554 -5.3302 
1354 2 0.536049 5.01115 -5.83367 
432 1 3.37082 4.90879 -5.62831 
1901 2 2.95297 5.58527 -4.91813 
1764 2 2.33738 5.14684 -4.62361 
1090 2 3.89015 -5.91682 -4.77356 
440 1 4.67423 5.27997 -4.79135 
1016 1 3.74792 4.69185 -4.87113 
255 1 4.20504 5.1489 -5.61719 
166 1 5.16951 5.60663 -5.46134 
181 1 -5.88091 5.73902 -5.23126 
1227 2 -5.30353 -5.14556 -4.25621 
1699 2 5.91497 -5.5624 -3.61646 
1931 2 -4.45941 -4.78522 -4.155 
346 1 -4.69508 5.8892 -4.38201 
274 1 -3.88328 -5.56964 -4.41118 
147 1 -2.95983 -5.28479 -4.09487 
805 1 -3.07632 -5.84279 -3.22188 
1151 2 -1.20776 -5.70534 -4.45735 
467 1 -2.07529 -5.04927 -4.01799 
497 1 -1.31611 -4.79573 -3.82411 
1014 1 -1.25779 -5.23306 -3.10581 
227 1 -0.452816 -4.71584 -3.39162 
1503 2 -0.335251 -5.62338 -3.97921 
1344 2 0.58439 -5.23954 -4.27171 
1747 2 0.420116 -5.63461 -3.37211 
1081 2 1.33226 -4.75764 -4.78176 
1828 2 1.21637 -5.13349 -3.88375 
43 1 1.41167 -5.93244 -4.69361 
707 1 2.36095 -5.5404 -4.44355 
64 1 2.95262 -5.5102 -3.80378 
2004 2 2.03174 -4.74878 -3.82738 
931 1 3.16812 -5.1247 -4.45628 
511 1 4.42889 -4.61567 -4.70625 
1846 2 4.66686 -5.65644 -4.38969 
180 1 4.08535 -4.94645 -3.94535 
2034 2 5.5458 -5.46759 -4.49372 
1875 2 5.12449 -5.84391 -3.7534 
284 1 4.74588 -4.82696 -3.51395 
809 1 -5.0728 -3.69014 -4.65578 
280 1 -5.70925 -4.1818 -4.32314 
273 1 -5.12874 -4.05343 -3.62287 
373 1 -4.51134 -3.61837 -4.1028 
1390 2 -3.60443 -4.42147 -4.0257 
441 1 -3.66523 -3.43616 -3.59568 
1581 2 -2.56966 -3.83673 -4.3824 
1411 2 -2.85466 -4.2401 -3.70994 
1617 2 -2.17272 -4.03557 -3.53343 
1197 2 -1.67193 -3.71127 -4.0832 
1711 2 -1.03245 -3.79223 -3.32295 
416 1 0.352938 -4.37442 -3.7271 
569 1 0.736969 -3.91494 -4.34499 
938 1 1.57837 -3.83172 -3.79416 
547 1 2.23651 -3.22251 -4.05159 
2019 2 3.12089 -4.13358 -4.03941 
1198 2 3.94535 -3.7068 -4.57686 
1657 2 4.02696 -3.88574 -3.54725 
242 1 5.26209 -4.48857 -4.16111 
339 1 5.96978 -4.55767 -3.3855 
1995 2 4.86891 -3.51491 -4.10812 
1887 2 4.80641 -3.90257 -3.07816 
1483 2 5.53536 -3.50024 -3.44209 
1491 2 -5.09225 -2.55543 -4.33622 
1465 2 -4.52313 -2.68663 -3.74683 
1817 2 -5.30722 -3.14874 -3.22104 
196 1 -3.68806 -3.10314 -4.44819 
1902 2 -4.32447 -2.18557 -4.44281 
1478 2 -3.53052 -2.0093 -3.84596 
465 1 -2.97313 -2.9756 -4.07026 
965 1 -1.94665 -2.68729 -4.19311 
595 1 -1.92657 -2.81083 -3.40381 
1515 2 -1.03691 -3.24182 -4.40102 
151 1 -1.37133 -2.11385 -4.66924 
411 1 -0.955094 -2.41279 -3.80382 
236 1 -0.355177 -2.10348 -4.15099 
1848 2 -0.352241 -3.24483 -3.8748 
1894 2 0.167241 -2.96148 -4.6003 
1533 2 0.556336 -3.13251 -3.67023 
1250 2 1.09501 -2.61905 -4.38742 
1231 2 1.17009 -3.05259 -3.18496 
1580 2 1.51362 -2.55374 -3.65497 
1190 2 1.98208 -2.24179 -4.42844 
1947 2 2.45367 -2.39499 -3.38684 
475 1 3.03536 -2.97181 -4.2935 
914 1 3.74486 -2.96011 -3.35517 
928 1 4.02236 -2.69531 -4.45191 
179 1 4.57941 -2.59357 -3.77687 
161 1 5.06655 -2.03568 -4.45263 
1937 2 -5.74153 -2.97364 -3.94507 
784 1 5.72913 -2.19084 -3.65288 
592 1 -4.96863 -1.35522 -4.53803 
205 1 -5.32007 -1.8224 -3.87983 
917 1 -4.90047 -1.87376 -3.09887 
117 1 -4.50364 -1.29746 -3.79157 
948 1 -3.54608 -1.01984 -3.58737 
2032 2 -1.85147 -1.32622 -4.43865 
1664 2 -2.85837 -1.66704 -4.64696 
1097 2 -2.63352 -1.8055 -3.86584 
1271 2 -1.10816 -0.928789 -4.39582 
1573 2 -1.58487 -1.56966 -3.6081 
1223 2 -0.640783 -1.1957 -3.68933 
1500 2 -0.0562168 -0.877663 -4.09596 
677 1 0.453337 -1.83575 -4.19046 
287 1 1.1312 -1.48493 -3.63478 
1057 2 0.736305 -0.788648 -3.14007 
1263 2 3.14474 -1.9608 -3.76769 
421 1 1.99092 -1.18099 -4.0874 
427 1 2.80227 -1.02098 -3.38206 
125 1 2.696 -0.746518 -4.57156 
2014 2 4.37604 -1.24346 -4.78891 
1128 2 3.65097 -1.70319 -4.40355 
1257 2 4.36341 -1.57939 -3.66164 
1634 2 5.25188 -0.884224 -4.65846 
1299 2 4.96615 -1.10933 -3.92887 
1163 2 5.9159 -0.726617 -3.88254 
1030 2 -4.95987 -0.370679 -3.59173 
1110 2 -4.54097 -0.000845017 -4.37342 
1725 2 -5.33024 -0.406284 -4.45331 
818 1 -5.0947 0.690519 -3.6667 
833 1 -3.71646 -0.692121 -4.46893 
1792 2 -4.06924 -0.0314786 -3.6688 
2048 2 -3.76474 0.400557 -4.72789 
214 1 -2.84034 -0.750235 -4.11249 
789 1 -1.98208 -0.439974 -3.59284 
1104 2 -3.17863 0.169003 -3.7487 
594 1 -1.26477 -0.124444 -3.96212 
80 1 0.395467 0.423118 -3.86003 
517 1 -0.549596 0.236651 -4.03399 
1785 2 1.62146 -0.135721 -4.23809 
1644 2 0.809375 -0.491857 -4.03328 
2041 2 1.58916 -0.420664 -3.26512 
1952 2 2.44668 0.119313 -4.0196 
1529 2 3.30611 0.473311 -4.14309 
900 1 4.31254 -0.356977 -4.30496 
241 1 4.27023 -0.44566 -3.53189 
700 1 3.39559 -0.660158 -4.03021 
195 1 5.15669 0.345254 -4.37804 
469 1 -5.80594 0.590028 -4.44764 
866 1 5.81156 0.269116 -3.74148 
715 1 5.04528 -0.134685 -3.67826 
397 1 -5.03037 1.04634 -4.51818 
1777 2 -5.52019 1.53791 -3.4847 
164 1 -4.21174 1.01649 -3.90446 
310 1 -3.68355 1.36625 -4.52377 
921 1 -3.52122 1.21537 -3.541 
1754 2 -2.4995 0.623921 -4.07196 
824 1 -2.80383 1.55446 -3.85941 
2001 2 -1.88392 0.610198 -3.45155 
1876 2 -1.61709 1.22688 -4.42626 
1999 2 -0.878471 1.21503 -3.7901 
1962 2 -0.0142326 1.30754 -3.3995 
1298 2 -0.104725 1.70496 -4.14317 
534 1 1.13221 0.955315 -4.66401 
1506 2 0.715152 1.89346 -4.42075 
551 1 1.89845 1.32605 -4.42961 
401 1 1.11257 0.806035 -3.89069 
895 1 2.70771 1.46773 -4.1576 
842 1 1.99928 1.08589 -3.68485 
894 1 2.92466 1.34068 -3.32251 
2027 2 4.04318 0.881525 -4.06811 
447 1 3.5389 1.84245 -3.80445 
382 1 3.40687 1.95156 -4.62404 
1470 2 5.50523 1.70548 -4.59177 
1320 2 5.53708 1.38167 -3.84137 
1172 2 4.6706 1.38538 -4.2543 
1986 2 4.81003 0.996714 -3.42918 
1953 2 -5.55708 1.98635 -4.4792 
396 1 5.89552 3.00771 -4.18906 
631 1 -5.01863 3.02489 -3.39867 
731 1 -5.83246 2.49888 -3.32138 
1068 2 -4.72886 2.05522 -4.07316 
1512 2 -3.71897 2.56142 -4.28412 
1092 2 -3.77424 2.28043 -3.58511 
1794 2 -2.98812 3.02756 -4.67602 
1415 2 -2.93258 2.81769 -3.84656 
1015 1 -2.07261 2.08593 -4.12942 
1175 2 -2.22237 3.14461 -3.78858 
982 1 -1.20417 2.26456 -3.82912 
1668 2 -1.18937 3.19925 -3.42142 
552 1 -0.536222 2.73146 -4.91481 
593 1 -0.501707 2.62129 -4.04841 
885 1 0.313146 2.85582 -4.09987 
448 1 1.17783 3.05125 -3.37996 
1967 2 1.45903 2.09874 -4.03265 
1461 2 2.39493 2.58021 -4.34586 
1158 2 2.34622 2.2585 -3.63401 
1769 2 3.15798 2.91443 -3.91122 
188 1 4.31632 2.37333 -4.51575 
2020 2 3.78429 3.37631 -4.25895 
1105 2 4.77199 3.27908 -3.46685 
7 1 5.12044 2.49925 -4.02006 
726 1 4.38553 2.18656 -3.73499 
882 1 -5.0327 3.39531 -4.37712 
1977 2 -5.482 4.14013 -3.76837 
1278 2 -4.67857 4.36111 -3.69959 
298 1 -4.01183 3.47302 -3.96388 
204 1 -3.28226 4.01367 -4.10258 
45 1 -2.59282 4.55182 -4.53185 
111 1 -2.64154 4.11974 -3.66994 
1593 2 -0.708597 3.77878 -4.59671 
221 1 -1.5848 4.36401 -3.47872 
1378 2 -1.34555 3.48792 -4.12334 
1625 2 0.299005 3.76995 -3.26428 
1267 2 -0.293943 3.78614 -4.01624 
2040 2 0.419189 4.22125 -4.42544 
1869 2 0.926794 4.20031 -3.68508 
896 1 1.71152 3.44623 -3.90302 
1042 2 1.71069 4.52922 -3.79076 
262 1 2.38362 3.86995 -4.39115 
143 1 2.72189 3.75242 -3.65862 
370 1 3.13749 4.26415 -4.55384 
650 1 3.4643 4.22616 -3.73425 
2039 2 4.7905 3.79025 -4.04197 
1072 2 5.65299 4.04248 -3.89433 
961 1 -5.4359 5.55827 -4.32297 
14 1 -4.99344 5.48228 -3.67889 
1311 2 -4.4927 4.78285 -4.39228 
1527 2 -3.74104 4.91387 -3.87513 
825 1 -4.10259 5.88145 -3.61448 
1329 2 -1.99111 5.70218 -4.48303 
1417 2 -2.81733 5.47807 -4.02916 
123 1 -1.5809 4.67034 -4.39659 
1551 2 -0.991482 5.7026 -3.73455 
1510 2 -1.8049 5.44262 -3.65712 
323 1 -0.775456 4.82931 -4.13501 
41 1 0.327093 5.31902 -4.16677 
17 1 -0.248473 4.93878 -3.51154 
638 1 1.12638 5.51624 -3.81582 
1499 2 1.29911 4.67618 -4.69619 
487 1 1.81436 5.87878 -3.94895 
1926 2 2.45527 4.97447 -3.83204 
1847 2 3.22813 5.39462 -4.17175 
437 1 4.29469 4.74132 -4.11414 
1854 2 3.9711 5.79761 -3.92401 
946 1 5.09517 4.82118 -3.73124 
918 1 -5.91124 5.29542 -3.67855 
835 1 5.46193 5.25723 -4.37749 
1203 2 -5.14979 -5.31898 -3.23782 
1548 2 -4.44795 -5.48997 -2.38874 
153 1 5.85671 -4.97538 -2.09741 
2000 2 -3.53131 -4.76763 -3.10248 
1534 2 -4.35549 -5.04103 -3.17655 
1285 2 -3.75317 -5.15041 -2.25003 
1046 2 -2.87589 -5.01898 -2.1391 
1394 2 -1.9858 -4.8662 -2.00815 
974 1 -2.53215 -5.88396 -2.49704 
229 1 -2.24347 -5.56062 -3.2553 
459 1 -1.68855 -5.7538 -2.2764 
260 1 -0.309578 -5.13885 -2.59101 
934 1 0.29996 -4.68363 -2.84501 
1915 2 1.85465 -5.07886 -3.06198 
1957 2 1.16891 -5.63148 -2.83954 
1749 2 1.51842 -5.74328 -1.9595 
455 1 0.973363 -4.57973 -2.41773 
2017 2 2.64354 -4.70851 -3.04863 
1530 2 2.26296 -5.38851 -2.2435 
1765 2 2.98685 -5.01027 -2.19324 
131 1 3.54701 -5.50737 -3.12143 
19 1 3.78893 -5.84208 -2.07261 
878 1 4.38665 -5.31666 -2.81145 
798 1 5.35899 -4.81065 -2.9165 
955 1 5.07482 -5.26638 -2.21402 
1318 2 5.64968 5.96575 -2.83984 
1319 2 -5.78657 -3.64698 -2.59688 
504 1 -4.68249 -4.26373 -2.36362 
524 1 -5.54175 -4.59591 -2.73426 
75 1 -4.39388 -3.9307 -3.03202 
71 1 -3.63935 -3.71117 -2.81984 
402 1 -2.79234 -3.25755 -3.21556 
634 1 -2.88918 -3.73071 -2.30444 
1425 2 -2.53456 -4.65867 -2.84033 
150 1 -1.93966 -3.26169 -2.67789 
1602 2 -1.74287 -4.33973 -2.79637 
388 1 -1.35051 -3.20934 -2.04923 
1881 2 -0.748342 -4.07502 -2.46976 
1896 2 -0.0718352 -3.50513 -3.04442 
1748 2 0.0833797 -3.9557 -2.07935 
249 1 1.04515 -4.16777 -3.25256 
1019 1 2.08951 -3.59023 -3.2262 
954 1 1.76589 -4.09373 -2.5974 
1658 2 0.750408 -3.39127 -2.59929 
1001 1 2.87001 -3.33088 -3.36022 
245 1 2.54643 -3.87359 -2.50943 
661 1 3.24154 -3.38829 -2.54919 
1592 2 3.36455 -4.30987 -3.16768 
981 1 4.09124 -3.29571 -2.14673 
1232 2 3.59594 -4.52197 -2.44474 
1737 2 4.38361 -4.19148 -2.43765 
1750 2 5.39071 -3.95346 -2.41248 
2007 2 -4.85756 -3.05525 -2.6798 
532 1 -5.7938 -2.23184 -2.75457 
548 1 -5.0068 -2.09674 -2.29672 
1545 2 -4.0474 -2.52873 -3.10693 
1442 2 -3.96669 -2.83267 -2.35911 
1911 2 -3.24057 -2.44669 -2.94822 
1867 2 -2.58837 -2.06739 -2.98685 
1537 2 -2.60412 -2.55141 -2.16739 
875 1 -1.11077 -2.78845 -3.03832 
998 1 -0.446368 -2.88536 -2.33058 
313 1 -0.381544 -2.38673 -3.19691 
844 1 0.55003 -2.1554 -3.25964 
986 1 0.550288 -2.40277 -2.33555 
106 1 1.19964 -2.22296 -1.63542 
1457 2 1.94106 -2.69896 -2.75638 
1973 2 1.56589 -3.37788 -2.03475 
1787 2 2.92112 -2.25141 -2.71895 
1878 2 2.49559 -2.73025 -2.12964 
754 1 4.37419 -2.86344 -2.85073 
1645 2 3.36006 -2.36322 -1.86587 
550 1 5.17088 -2.68998 -2.83178 
311 1 5.71458 -2.77882 -2.05518 
321 1 4.87142 -3.08639 -2.00194 
2035 2 -4.9899 -1.09405 -2.21479 
1775 2 -5.51236 -0.861738 -3.04979 
1237 2 -5.92754 -1.47474 -2.33467 
1350 2 -4.46042 -0.512423 -2.62701 
344 1 -4.0321 -1.32197 -2.97133 
636 1 -4.05812 -1.73066 -2.2032 
291 1 -3.33832 -1.39978 -2.59469 
717 1 -2.66593 -0.95453 -3.18408 
37 1 -2.50172 -1.39211 -2.14596 
1456 2 -1.66027 -2.05792 -2.55109 
1345 2 -0.935816 -1.5132 -2.66875 
630 1 -0.792729 -0.480464 -2.20126 
1673 2 -0.0305657 -1.33213 -2.88661 
1635 2 -0.0780978 -1.63424 -2.04261 
1804 2 0.647155 -1.09202 -2.33382 
597 1 1.26689 -2.02302 -2.51046 
2046 2 1.46311 -0.751685 -2.49644 
705 1 1.82723 -1.5091 -2.98579 
640 1 2.72558 -1.24544 -2.52154 
1738 2 3.61192 -1.89035 -3.04528 
42 1 3.66308 -0.869965 -3.16266 
1641 2 4.1301 -1.94472 -2.31326 
116 1 3.77623 -0.928676 -2.38896 
297 1 4.52007 -0.628533 -2.52792 
1492 2 5.07283 -1.71828 -2.10191 
1148 2 4.83446 -1.5355 -2.9366 
1286 2 5.5894 -1.20166 -3.16847 
708 1 -4.96681 0.392913 -2.72554 
278 1 -5.71966 0.294567 -3.00289 
958 1 -5.47311 -0.0335138 -2.23854 
1184 2 -3.67154 -0.103853 -3.02237 
1206 2 -3.81968 -0.586856 -2.12911 
489 1 -4.29571 0.57043 -2.14686 
1830 2 -2.58228 0.187656 -3.03056 
1025 2 -3.02046 -0.166817 -2.3737 
1432 2 -2.14942 0.0354303 -2.23881 
499 1 -1.97081 -1.08655 -2.79891 
615 1 -1.27911 -0.561777 -3.05016 
1643 2 -1.5162 0.449179 -2.56622 
1834 2 -0.851481 0.601354 -2.20941 
886 1 0.0508228 -0.17718 -2.20306 
1021 1 0.448716 0.0636439 -3.03644 
776 1 -0.403027 -0.197467 -3.28694 
749 1 0.850795 0.0286238 -2.32814 
90 1 1.19378 0.576943 -2.99313 
783 1 1.48421 0.382055 -2.01211 
1963 2 2.44512 -0.108578 -3.15885 
1832 2 2.28508 -0.423717 -2.16839 
1505 2 3.19123 0.266618 -3.33144 
1858 2 3.06387 -0.0735725 -2.44695 
1059 2 4.05484 0.465088 -3.26262 
1220 2 4.26615 0.269979 -2.44982 
912 1 5.32233 -0.23998 -2.80465 
1468 2 4.94543 0.712917 -2.40573 
1361 2 -5.30376 1.46136 -2.59259 
1654 2 -5.93133 0.959476 -2.25228 
1803 2 -4.63134 1.62165 -2.28636 
1282 2 -4.73333 1.88705 -3.16514 
299 1 -4.25686 0.794991 -3.00464 
686 1 -3.4693 0.860356 -2.72891 
1839 2 -4.00239 2.01061 -2.65821 
903 1 -2.00295 1.72411 -3.29665 
613 1 -2.54499 1.22422 -2.82501 
494 1 -1.99941 1.31741 -2.19195 
240 1 -1.21456 1.45775 -2.2444 
1550 2 -0.803899 0.676177 -3.14049 
1683 2 -0.0274519 0.898081 -2.58812 
1187 2 0.602497 1.13482 -1.99401 
1884 2 0.709126 1.65751 -3.49692 
1050 2 1.0398 1.4256 -2.74461 
1642 2 1.72095 1.88295 -3.12469 
408 1 1.96 0.791944 -2.78697 
621 1 2.80631 0.980208 -2.54817 
194 1 3.50947 1.10574 -2.15671 
760 1 3.65328 1.42432 -2.92872 
232 1 4.40275 1.58 -2.20029 
574 1 4.57058 2.00673 -2.88205 
2030 2 5.5775 1.22838 -2.92558 
944 1 5.16121 1.89858 -2.2431 
811 1 -6.0016 2.30931 -2.46257 
171 1 -5.06017 2.77953 -2.49673 
879 1 -4.16821 3.17669 -2.9605 
460 1 -3.59798 2.98176 -2.30272 
446 1 -4.44904 2.63173 -1.85244 
1728 2 -3.22818 1.87919 -2.04718 
2021 2 -2.37454 2.26003 -2.1399 
1485 2 -3.06337 2.26099 -2.9517 
719 1 -1.22313 1.88924 -2.95871 
1247 2 -2.1278 2.77518 -2.9462 
1304 2 -1.32396 2.92183 -2.59802 
301 1 -0.330334 2.29158 -3.07411 
208 1 -0.405487 1.89917 -2.22448 
561 1 0.513991 2.7495 -3.19686 
478 1 0.423367 2.21067 -2.48924 
937 1 1.42347 2.85172 -2.56746 
1825 2 2.5549 1.96164 -2.75863 
775 1 2.22577 2.7674 -2.11034 
1065 2 3.25002 2.48923 -3.12931 
256 1 3.09602 3.4396 -2.01011 
1686 2 3.94868 3.00817 -3.19589 
1554 2 3.97124 2.60324 -2.28752 
1134 2 3.26261 2.28098 -2.27371 
702 1 5.24878 2.21385 -3.10728 
1786 2 4.76987 2.91024 -2.48706 
1636 2 5.84829 3.25792 -2.33334 
1662 2 -5.65195 3.81302 -2.98463 
1335 2 -4.80294 3.93898 -2.78266 
1333 2 -5.22181 3.61473 -1.98752 
1048 2 -3.91814 4.57492 -3.00259 
568 1 -3.33855 3.62906 -3.28563 
1971 2 -4.13038 4.09461 -2.22347 
1419 2 -3.29305 4.40316 -2.53417 
751 1 -2.70142 3.51946 -2.67127 
772 1 -1.99775 3.88217 -2.85613 
26 1 -1.87715 3.69894 -1.94454 
418 1 -1.26273 3.96122 -2.48685 
733 1 -0.842263 4.35597 -3.18883 
1183 2 -0.479275 3.26739 -2.98955 
1071 2 0.124649 3.29969 -2.20684 
627 1 -0.502299 4.16006 -2.19596 
612 1 0.168632 4.60193 -2.52816 
564 1 0.742522 4.56259 -1.78483 
1997 2 1.05179 3.84235 -2.72548 
1268 2 1.91889 4.16985 -2.93407 
906 1 2.11164 3.0818 -3.07234 
34 1 2.90113 3.36507 -2.79848 
1913 2 2.48346 4.22764 -2.03688 
641 1 3.69419 3.89922 -2.89732 
690 1 4.41456 4.19954 -3.08571 
183 1 4.03519 3.5646 -1.96351 
582 1 5.11006 4.37478 -2.6449 
1670 2 5.44819 3.45196 -3.11585 
2016 2 -5.262 -5.88281 -2.52632 
742 1 -5.86719 4.6117 -2.38862 
453 1 -5.26974 5.1102 -2.89043 
13 1 -4.86079 4.93035 -2.20473 
662 1 -4.35522 5.46305 -2.86693 
1008 1 -3.44054 5.72748 -2.50787 
1413 2 -3.12673 4.96475 -3.22091 
1127 2 -2.39286 4.63542 -2.26369 
1575 2 -2.31562 5.03549 -2.98632 
1353 2 -1.39216 5.37155 -3.0177 
1191 2 -1.51662 5.0165 -2.14438 
1818 2 -0.28703 5.85594 -3.16661 
1038 2 -0.803052 5.32334 -2.51747 
1928 2 0.427731 5.87942 -2.51821 
165 1 0.558582 5.03398 -3.1494 
736 1 1.64047 5.38997 -3.09104 
1543 2 0.902437 5.70512 -1.77009 
498 1 1.36974 4.9478 -2.41449 
516 1 3.08967 5.78589 -2.49949 
1428 2 2.65055 4.58022 -3.0441 
2015 2 3.25061 4.7802 -2.44121 
871 1 2.44514 5.89863 -3.21688 
361 1 2.16229 5.32214 -2.33691 
1161 2 3.46419 5.18865 -3.44525 
1405 2 4.51402 5.61266 -3.34885 
1234 2 3.9604 5.24531 -2.71271 
443 1 5.6919 4.91653 -3.03355 
1612 2 5.63592 5.53764 -2.1217 
1362 2 4.86206 5.61948 -2.62691 
269 1 -5.03316 -4.71003 -1.82216 
724 1 -5.79802 -5.39326 -1.31457 
991 1 -4.93685 -5.16058 -1.09128 
1047 2 -4.60541 -5.86625 -1.71348 
1477 2 -3.93085 -5.65672 -1.5859 
890 1 -4.16158 -4.61273 -1.33376 
1079 2 -2.96171 -5.42825 -1.39187 
1613 2 -2.17016 -5.19765 -1.10785 
672 1 -0.780972 -5.67645 -2.09254 
1535 2 -1.28987 -4.92918 -1.07783 
305 1 0.369692 -5.11749 -1.90074 
203 1 -0.325929 -5.39389 -1.32468 
317 1 0.43352 -5.35554 -0.887958 
295 1 1.14158 -4.91184 -1.40105 
286 1 1.32656 -5.16228 -0.421397 
1611 2 2.31374 -5.61379 -1.33114 
1859 2 3.07957 -5.20587 -1.48894 
1521 2 4.02699 -5.12158 -0.860075 
847 1 4.5473 -5.71698 -1.56667 
586 1 5.24372 -5.6586 -1.28057 
1844 2 4.73579 -4.72489 -0.955092 
1851 2 -5.13653 -3.50016 -1.93781 
1655 2 -5.31409 -3.9299 -1.22744 
251 1 -3.86367 -4.14372 -2.06757 
21 1 -3.54684 -4.60812 -0.788805 
1119 2 -4.60408 -3.66499 -0.876843 
1993 2 -4.25199 -3.32779 -1.70929 
753 1 -3.11361 -4.26445 -1.50681 
366 1 -2.28479 -4.13236 -1.08539 
816 1 -2.15063 -3.75404 -1.8614 
1991 2 -1.15535 -4.64314 -1.93554 
398 1 -1.47647 -3.7429 -1.21684 
246 1 -0.710025 -3.31776 -1.48038 
1812 2 -0.32233 -4.36462 -1.54651 
1280 2 -0.479994 -4.62988 -0.684101 
1922 2 0.342916 -4.17761 -0.978478 
304 1 1.89264 -4.58196 -1.774 
1942 2 0.850564 -3.83163 -1.68757 
1381 2 0.952372 -4.20663 -0.391618 
1066 2 1.53858 -3.74174 -1.06723 
100 1 2.88561 -4.37017 -0.942141 
257 1 2.5771 -4.21097 -1.73353 
693 1 2.03975 -4.75347 -1.00564 
1637 2 2.80271 -3.43175 -0.676971 
352 1 4.36325 -3.54888 -1.31543 
1487 2 3.87353 -4.91416 -1.70514 
328 1 3.52938 -3.77825 -1.69365 
602 1 3.76797 -4.06521 -0.899835 
1871 2 5.81487 -4.1167 -1.61648 
1836 2 5.67473 -4.54055 -0.749569 
1129 2 4.92836 -4.36485 -1.74828 
522 1 4.95936 -3.63501 -0.761074 
471 1 -5.6855 -2.95743 -1.00951 
140 1 -5.39137 -2.59655 -1.78458 
767 1 -4.8843 -2.66375 -0.937122 
99 1 -4.41858 -2.28963 -1.44008 
1069 2 -3.5793 -3.32148 -1.13714 
167 1 -3.70691 -2.05841 -1.3006 
1077 2 -3.24241 -2.93958 -1.87279 
1908 2 -2.48025 -2.93699 -1.28865 
963 1 -2.70051 -1.77946 -1.02971 
1781 2 -1.85261 -2.47804 -1.65018 
1574 2 -0.802804 -2.05782 -1.8954 
1052 2 -1.02392 -2.39955 -1.07643 
573 1 0.201302 -2.85608 -1.62635 
1177 2 -0.193105 -2.08451 -1.12715 
11 1 0.904535 -2.78561 -1.1209 
377 1 1.9142 -2.36691 -1.09041 
1708 2 2.21459 -3.29718 -1.457 
1167 2 3.05333 -2.8704 -1.20112 
1156 2 4.20226 -2.3852 -1.63078 
1262 2 3.84165 -2.64196 -0.824045 
968 1 5.40589 -3.23677 -1.28999 
1445 2 4.97798 -2.2413 -1.11753 
1279 2 -5.27097 -1.52228 -1.30263 
1174 2 -4.60563 -1.38811 -0.807337 
1978 2 -4.41989 -1.03256 -1.59404 
1310 2 -3.64066 -0.993134 -1.16166 
1826 2 -2.74969 -0.812364 -0.878941 
682 1 -2.01214 -1.54427 -1.40997 
177 1 -3.19999 -1.8182 -1.82931 
234 1 -1.56949 -0.968807 -1.9113 
252 1 -1.11689 -1.19028 -1.17619 
271 1 -1.58463 -1.58238 -0.56399 
121 1 -0.33735 -0.821042 -1.52359 
502 1 0.367694 -0.83746 -0.738909 
1517 2 0.768178 -1.27067 -1.58297 
1568 2 1.63068 -0.962971 -1.54129 
1682 2 1.3896 -1.38036 -0.716624 
1086 2 0.555242 -1.86326 -0.769054 
691 1 2.1377 -1.78264 -2.0131 
867 1 2.5646 -1.8309 -1.23335 
846 1 3.10592 -1.39683 -1.72494 
626 1 3.70387 -1.44754 -1.10678 
962 1 4.31858 -1.19248 -1.65613 
279 1 4.72325 -1.25489 -0.860193 
1940 2 5.77983 -1.82576 -1.35026 
518 1 4.97925 -0.737514 -1.8224 
198 1 5.47581 -0.87307 -0.998758 
654 1 -4.81323 -0.0309821 -1.61827 
737 1 -5.54364 -0.490468 -1.30871 
692 1 -4.55481 -0.228319 -0.723328 
472 1 -3.51265 0.657182 -1.89718 
969 1 -3.98952 0.187376 -1.23243 
1337 2 -3.01275 -0.517752 -1.74022 
259 1 -3.02594 0.420099 -1.13598 
1893 2 -2.09158 -0.221461 -1.15301 
910 1 -2.26832 0.615536 -0.609809 
1972 2 -1.32767 0.185735 -1.6175 
1761 2 -1.35174 -0.277728 -0.628057 
1436 2 -0.0401269 0.706143 -1.57145 
1589 2 -0.635784 0.197595 -0.999284 
625 1 0.468533 -0.355788 -1.42063 
243 1 1.30303 -0.0207722 -1.22656 
1659 2 2.92054 -0.411855 -1.38512 
601 1 2.15124 0.287842 -1.11464 
1819 2 3.70895 -0.132494 -1.84781 
1360 2 4.55817 0.178766 -1.57477 
1508 2 4.12732 -0.339525 -0.952609 
32 1 5.75076 -0.466108 -1.96972 
1045 2 5.49008 0.43883 -1.66688 
1229 2 5.90262 0.295074 -0.738525 
1564 2 5.04163 0.107321 -0.796676 
1776 2 -5.55787 0.780041 -1.33992 
1000 1 -5.78711 1.65359 -0.878875 
1622 2 -4.72898 1.17979 -1.54998 
1679 2 -3.88546 1.6992 -1.58461 
1720 2 -3.32041 1.39009 -0.884528 
1724 2 -4.20556 1.07048 -0.814902 
1727 2 -2.79299 1.77529 -1.36388 
189 1 -2.70611 0.822286 -2.02455 
1520 2 -2.43838 1.54027 -0.569698 
823 1 -0.814145 1.50171 -1.47355 
115 1 -1.96559 0.940591 -1.41675 
44 1 -1.06512 1.01107 -0.861148 
660 1 0.247068 2.02564 -1.72026 
2043 2 0.506157 0.662468 -0.952496 
614 1 -0.0587144 1.61735 -0.983305 
1386 2 1.31431 1.24314 -1.4545 
1681 2 1.80486 1.72913 -2.12141 
50 1 3.04508 0.683145 -1.28639 
1712 2 2.18797 1.49961 -1.28632 
874 1 2.32417 0.754457 -1.85123 
1866 2 2.95071 1.61255 -0.744839 
1838 2 3.85736 1.9108 -0.655701 
464 1 4.13347 1.04811 -1.37605 
837 1 4.45074 0.913856 -0.625285 
1011 1 4.87697 1.32587 -1.5943 
761 1 5.69412 1.78916 -1.63927 
351 1 -5.35598 2.18642 -1.74636 
1757 2 -5.19692 3.21681 -1.12573 
1627 2 -4.78272 2.96186 -0.416867 
312 1 -5.02697 2.01944 -0.929389 
966 1 -3.3287 2.82521 -1.33052 
739 1 -4.14676 2.40096 -1.05926 
1348 2 -4.05674 3.46931 -0.772975 
322 1 -2.61663 3.18263 -1.81463 
381 1 -1.8181 3.34667 -1.05054 
696 1 -2.6645 2.90255 -0.834225 
2047 2 -1.81351 2.04949 -1.10054 
1689 2 -1.63219 2.43946 -1.88299 
1981 2 -1.02814 2.52644 -1.38701 
1983 2 -0.727698 2.79087 -2.12659 
1616 2 -0.0819189 2.86948 -1.34277 
747 1 0.733918 1.99646 -0.920855 
828 1 1.09899 2.31456 -1.7351 
124 1 1.90683 2.48502 -1.01054 
1080 2 0.582585 3.1106 -0.86964 
1994 2 2.63958 1.9053 -1.87434 
843 1 2.74798 2.69366 -1.14491 
1522 2 3.42088 1.86121 -1.33381 
945 1 3.58561 3.14364 -1.20568 
1276 2 4.17655 2.34991 -1.48038 
786 1 4.37163 3.39843 -1.00773 
1330 2 5.01475 2.8159 -1.68017 
1439 2 5.94907 3.04701 -1.50358 
1026 2 5.46217 2.6639 -0.876869 
355 1 -5.33533 4.53074 -1.66126 
952 1 -5.6226 4.13216 -0.92036 
1056 2 -4.43649 3.6993 -1.51788 
1287 2 -3.36236 3.82592 -0.741462 
506 1 -4.57545 4.76331 -1.37629 
1992 2 -3.42863 3.985 -1.63759 
2033 2 -2.55103 4.4206 -1.58252 
520 1 -0.963756 3.32106 -0.809344 
1339 2 -1.56158 4.64597 -1.40053 
224 1 -0.91921 3.79455 -1.45297 
985 1 0.0588231 4.13473 -1.49579 
1023 1 -0.379872 3.90573 -0.842494 
438 1 0.659419 4.2625 -0.920665 
1406 2 0.823993 3.35051 -1.80276 
1974 2 1.67336 3.70668 -1.97193 