ITEM: TIMESTEP
1500
ITEM: NUMBER OF ATOMS
2048
ITEM: BOX BOUNDS pp pp pp
-5.9579990505495823e+00 5.9579990505495823e+00
-5.9579990505495823e+00 5.9579990505495823e+00
-5.9579990505495823e+00 5.9579990505495823e+00
ITEM: ATOMS id type x y z 
1849 2 -5.63722 -4.78595 -5.45656 
514 1 -5.17022 -5.60399 -5.92882 
14 1 -4.33141 -5.42502 -5.55863 
29 1 -3.37638 -5.12967 -5.33634 
554 1 -4.33088 -5.89412 -4.79609 
3 1 -2.55825 -4.87786 -5.30853 
1365 2 -2.56624 -5.87682 -5.8322 
855 1 -1.90931 -4.59392 -5.04998 
1151 2 -1.79425 -5.67417 -5.52165 
1291 2 -0.940802 -5.29848 -5.35653 
1526 2 -1.52057 -5.73381 -4.74701 
1029 2 0.00548054 -5.12388 -5.11949 
1260 2 0.699297 -4.96689 -4.81112 
959 1 1.0439 -5.86649 -5.30707 
673 1 1.80947 -5.63153 -4.96187 
931 1 2.66402 -5.37009 -4.91638 
821 1 2.68556 -4.99517 -5.60366 
57 1 3.54746 -4.96509 -4.66101 
1677 2 3.85405 -5.84883 -5.22209 
1604 2 4.57603 -5.82638 -4.90726 
434 1 3.42284 -4.67777 -5.75275 
1277 2 4.702 -5.38876 -5.65495 
1931 2 5.45894 -5.03808 -5.62867 
1799 2 5.50657 -5.41002 -4.70712 
19 1 -4.97692 -3.6941 -4.87451 
555 1 -5.86868 -3.86211 -4.98705 
223 1 -5.457 -3.45485 -5.98253 
373 1 -4.71397 -3.29183 -5.51289 
1661 2 -4.78183 -4.57417 -5.23841 
1548 2 -3.93753 -4.35448 -5.09742 
1103 2 -3.93586 -3.93731 -5.88105 
1046 2 -3.15654 -3.77234 -5.78491 
1663 2 -2.37228 -3.44646 -5.69273 
1261 2 -3.11922 -4.1037 -4.99478 
1402 2 -2.14683 -3.69502 -4.85154 
91 1 -0.754201 -4.13987 -5.36506 
765 1 -1.1194 -4.48135 -4.69246 
247 1 0.387925 -3.75264 -5.4312 
902 1 1.18223 -3.42363 -5.29046 
403 1 0.600636 -3.98798 -4.45739 
2029 2 0.72992 -4.49739 -5.7435 
1694 2 1.55359 -4.36402 -5.6072 
122 1 2.02907 -3.21722 -4.98105 
1705 2 1.45972 -4.72852 -4.81576 
1995 2 2.30191 -4.12096 -5.42893 
1466 2 3.41348 -3.39558 5.95122 
1129 2 3.17421 -3.70978 -5.10443 
723 1 4.34647 -4.48983 -5.39259 
1929 2 3.99074 -3.66504 -4.96137 
429 1 5.20405 -4.16121 -5.06058 
2032 2 4.73333 -3.28431 -4.80557 
1588 2 -5.12148 -2.42375 -5.08832 
1341 2 -4.34057 -2.18383 -4.9303 
878 1 -3.92384 -2.99226 -5.31395 
196 1 -3.17664 -2.86215 -5.23201 
1682 2 -3.47859 -1.86939 -4.91598 
353 1 -2.4534 -2.78336 -4.78152 
1711 2 -1.4492 -3.23897 -5.10081 
151 1 -1.79232 -2.21463 -4.87619 
1763 2 -0.577929 -3.0285 -5.22842 
1820 2 0.23778 -2.29132 -5.69361 
1255 2 0.159247 -2.72239 -4.95711 
1909 2 0.966969 -2.46702 -5.09555 
1525 2 1.06857 -1.94357 -5.85786 
202 1 2.1471 -2.765 -5.71705 
975 1 2.98091 -2.52901 -5.5404 
694 1 2.76478 -2.99522 -4.67058 
904 1 3.64249 -2.74442 -4.63715 
1190 2 2.3973 -2.04392 -4.40292 
1722 2 4.18325 -3.22804 -5.81012 
939 1 3.73765 -2.23036 -5.36163 
406 1 4.52644 -2.06004 -5.17375 
1070 2 5.93625 -2.57983 -5.4259 
1475 2 5.08401 -2.96465 -5.61242 
1937 2 5.57746 -3.0778 -4.56387 
543 1 -5.67881 -1.56201 -4.89395 
730 1 -4.77763 -0.891206 -5.16697 
972 1 -5.42411 -1.1999 -5.57426 
717 1 -4.83289 -1.25005 -4.39077 
1904 2 -4.83706 -1.95646 5.95961 
1635 2 -4.10126 -1.69082 -5.58949 
55 1 -3.96543 -0.720337 -5.07458 
1345 2 -2.11558 -0.972412 -5.47782 
1572 2 -2.18356 -0.674526 5.50287 
402 1 -1.94491 -1.94809 -5.72792 
1069 2 -1.30537 -0.902127 -4.97757 
11 1 -0.842224 -1.58363 -5.51619 
595 1 -0.145253 -1.52292 -5.07799 
8 1 0.807841 -1.10286 -5.14376 
581 1 1.63165 -0.969153 -4.84165 
1555 2 1.61411 -2.44889 -4.59985 
2048 2 2.64815 -1.61216 -5.20943 
640 1 2.33037 -0.526606 -5.36322 
1363 2 3.33908 -1.37559 -4.901 
1202 2 3.35791 -1.06719 -5.80135 
1167 2 4.13448 -1.20793 -4.71702 
1224 2 4.31498 -0.841389 -5.60023 
436 1 4.8043 -1.71865 -5.87623 
771 1 5.46835 -1.70711 -5.1265 
176 1 5.75003 -1.2811 -5.97977 
1623 2 5.03377 -0.936579 -4.63297 
1615 2 -5.25536 -0.0412237 -5.2628 
1343 2 -4.59128 0.474058 -5.7009 
1256 2 -4.51306 0.132128 -4.92129 
179 1 -4.35492 -0.507518 -5.9274 
374 1 -3.31135 -0.399075 -4.88244 
701 1 -2.38974 -0.270348 -4.59364 
749 1 -2.60679 -0.087646 -5.53764 
704 1 -1.78896 0.17792 -4.80376 
37 1 -2.04032 0.532591 -5.61165 
1569 2 -1.40105 -0.459747 -5.85185 
789 1 -1.00667 0.560809 -5.48398 
1296 2 -0.496186 -0.578685 -4.79932 
1478 2 0.509814 -0.343663 -4.46346 
1573 2 0.157013 -0.167322 -5.48671 
1537 2 -0.522337 -0.255465 -5.92184 
1852 2 1.02508 0.103901 -5.24223 
1975 2 1.90887 0.445399 -5.15339 
299 1 2.22652 -0.265648 5.67435 
866 1 3.1117 -0.0265926 -5.38844 
818 1 3.94157 -0.0339239 -5.20925 
831 1 3.74113 0.514312 5.89479 
2001 2 5.05817 -0.565241 -5.36766 
1111 2 5.85191 -0.276927 -5.3417 
915 1 4.52844 0.494163 -4.98836 
420 1 -5.64411 1.17469 -5.53996 
656 1 -4.84011 1.44748 -5.30248 
1443 2 -3.65264 0.725492 -5.37355 
980 1 -4.04277 1.68077 -4.88475 
1050 2 -2.86381 1.12494 -5.29179 
1054 2 -1.94657 1.22361 -4.7884 
1576 2 -2.01371 1.55423 -5.70915 
1364 2 -1.20535 1.60046 -4.98003 
1386 2 -1.25371 1.92805 -5.79635 
625 1 -0.223917 0.890777 -5.17824 
895 1 0.689554 1.08583 -4.89 
254 1 0.545073 1.29488 -5.78437 
63 1 1.3459 1.56909 -5.61023 
760 1 1.44272 1.30089 -4.84783 
1910 2 2.70512 0.816331 -5.05816 
1180 2 2.72604 1.1533 -5.77726 
380 1 2.08272 1.87592 -5.34784 
1412 2 3.52902 1.01636 -4.93235 
1226 2 4.28063 1.5113 -5.3932 
1470 2 3.46204 1.45257 -5.65602 
872 1 5.45548 0.569934 -4.82591 
960 1 4.60757 0.600285 -5.842 
319 1 5.44354 0.906081 -5.61661 
1729 2 5.36774 1.81572 -5.266 
1396 2 -5.80463 2.21274 -5.21672 
1377 2 -5.04452 2.61875 -5.4243 
1810 2 -5.14695 2.94889 5.52179 
1403 2 -5.86268 2.50356 5.85518 
491 1 -4.12353 1.79445 -5.77991 
1716 2 -4.25127 2.7852 -5.62142 
1482 2 -3.49948 3.12539 -5.26645 
1485 2 -4.19828 2.61528 -4.49214 
903 1 -3.23845 2.02786 -4.97052 
820 1 -3.26765 2.22771 -5.77932 
1015 1 -2.36949 2.48737 -5.36419 
494 1 -1.55785 2.86748 -5.23245 
301 1 -0.742665 3.05585 -5.12399 
383 1 -0.321168 3.54754 -5.93934 
1063 2 -0.49399 2.2242 -5.60397 
56 1 0.0765626 3.1053 -4.76634 
1639 2 0.402562 2.30693 -5.58102 
1653 2 1.17225 2.54616 -5.09729 
1298 2 1.16179 2.77839 -5.94707 
1408 2 1.92845 3.11924 -5.68941 
1628 2 2.00134 2.94013 -4.84942 
396 1 2.96908 2.27036 -5.32276 
1979 2 2.81716 3.15093 -4.79911 
204 1 3.75953 2.39516 -5.14382 
800 1 4.09771 2.85284 -5.82851 
445 1 4.85555 3.08627 -5.73052 
178 1 5.73503 3.45731 -5.69494 
984 1 4.61802 2.59036 -4.84632 
1919 2 5.2663 2.17352 5.88115 
188 1 -5.38631 3.452 -4.99815 
1618 2 -5.78688 4.33892 -4.77002 
83 1 -4.72732 3.883 -5.68634 
989 1 -4.42626 3.66657 -4.91813 
607 1 -3.64956 4.00356 -4.8677 
45 1 -3.78248 4.24053 -5.77926 
1934 2 -2.54643 3.80911 -5.84119 
1620 2 -2.69455 3.30876 -4.94807 
428 1 -3.07083 4.53564 -5.54031 
1142 2 -1.70733 3.95082 -5.59125 
1877 2 -1.8882 3.76657 -4.76513 
1869 2 -0.964135 4.23488 -5.43441 
1336 2 -0.249289 4.43749 -5.3623 
710 1 0.373104 3.44245 -5.56026 
815 1 1.70143 4.37297 5.69607 
415 1 0.986445 3.74141 -5.88502 
310 1 0.843473 3.30995 -4.51212 
950 1 1.47214 3.93579 -5.24565 
1130 2 2.7395 3.35668 -5.7706 
716 1 2.36996 4.19048 -5.36595 
1274 2 3.70061 3.97678 5.86108 
1769 2 4.43295 3.92177 -5.32285 
1342 2 5.24845 4.0407 -4.88072 
1933 2 5.25009 4.4366 -5.71698 
412 1 -5.11069 -5.95269 -5.04283 
1670 2 -5.7538 4.86358 -5.47524 
1640 2 -4.75919 4.8936 -5.33945 
1349 2 -3.84885 5.18248 -5.21518 
1757 2 -3.16668 5.63581 -5.09571 
1048 2 -3.31361 -5.92274 5.8745 
82 1 -2.12502 5.02647 -5.51368 
1413 2 -2.46095 5.94828 -4.82082 
632 1 -1.45227 5.40593 5.86572 
729 1 -1.42509 5.23008 -5.22696 
528 1 0.276631 5.91068 -5.63181 
123 1 -0.663153 5.37632 -5.0037 
135 1 -0.633473 5.68041 -5.85927 
1033 2 0.524037 4.94995 5.86189 
1039 2 0.56969 4.56634 -5.1378 
17 1 0.212141 5.48807 -4.78965 
1193 2 1.31735 4.88778 -4.95982 
1032 2 1.41158 5.18195 -5.87978 
256 1 3.24262 4.58852 -5.06935 
1748 2 2.21885 5.49737 -5.7154 
1437 2 2.97637 5.78206 -5.37357 
1823 2 2.16994 5.15958 -4.9355 
486 1 4.14013 5.15847 -5.54035 
653 1 3.38999 5.00114 -5.83967 
48 1 4.17208 4.76962 -4.73797 
407 1 5.96071 5.79668 -5.12803 
318 1 5.11498 5.41847 -5.49146 
1272 2 -5.62925 -5.10672 -4.60002 
1418 2 -5.76027 -5.49278 -3.75721 
1633 2 -4.85672 -4.95483 -4.41882 
1192 2 -4.83317 -5.20903 -3.56654 
473 1 -3.78116 -5.36535 -4.67478 
346 1 -3.47569 -5.63136 -3.97643 
1079 2 -4.1622 -4.94642 -3.19074 
255 1 -2.73348 -5.3373 -3.61501 
1008 1 -2.83699 -5.15512 -4.4515 
508 1 -1.99389 -5.28486 -3.36531 
333 1 -1.97801 -5.02547 -4.20299 
1571 2 -0.653208 -5.62291 -4.55533 
274 1 -1.20592 -4.78163 -3.96673 
1592 2 -0.850998 5.94928 -3.80903 
1486 2 0.150894 -5.54404 -4.17686 
1429 2 -0.181358 -5.85851 -3.40379 
1790 2 1.69707 -4.91229 -3.95798 
1737 2 0.954259 -5.1185 -4.07859 
64 1 2.02348 -5.92545 -4.22285 
1013 1 2.87039 -5.587 -4.06163 
666 1 4.34592 -4.69828 -4.53439 
955 1 3.71852 -5.36796 -3.82766 
496 1 4.49125 -4.89017 -3.74097 
1425 2 4.51107 5.80834 -4.10921 
1358 2 5.38024 -5.82337 -3.98114 
847 1 5.2277 -4.90011 -3.52499 
75 1 -5.10661 -4.00642 -3.79624 
817 1 -5.82791 -4.24265 -4.07982 
339 1 -5.8724 -4.6047 -3.27933 
1477 2 -4.1745 -4.60224 -4.13059 
273 1 -3.955 -3.29737 -4.50035 
483 1 -4.26126 -3.63857 -3.77173 
218 1 -3.54977 -3.56072 -3.28266 
991 1 -3.12059 -3.14895 -4.42825 
1807 2 -3.14296 -4.22601 -4.0712 
1106 2 -2.25376 -3.99925 -3.90077 
2009 2 -1.35156 -3.60462 -4.38366 
1531 2 -1.50576 -3.82059 -3.47723 
467 1 -0.115392 -4.05249 -4.81279 
1280 2 -0.646051 -3.61551 -3.39087 
328 1 -0.401284 -4.54003 -4.15147 
107 1 0.358391 -4.28003 -3.64977 
782 1 1.39309 -3.69027 -4.46134 
321 1 1.22677 -4.12532 -3.3835 
1836 2 2.2877 -4.41314 -4.50942 
1198 2 2.39998 -4.73856 -3.57118 
547 1 2.05435 -3.47302 -4.04999 
1521 2 3.15657 -4.44344 -3.50793 
2010 2 3.15773 -4.09744 -4.378 
1655 2 3.93375 -3.92303 -3.95251 
1765 2 4.01177 -4.27473 -3.14707 
131 1 5.13643 -4.51502 -4.24142 
2002 2 4.73613 -3.67415 -3.89507 
1871 2 -5.32097 -2.85989 -4.37453 
1465 2 -4.47001 -2.58799 -4.09497 
1911 2 -5.68124 -3.03489 -3.53454 
66 1 5.93181 -2.08761 -3.20225 
1271 2 -3.59031 -2.33343 -3.9685 
599 1 -2.75813 -3.0727 -3.57994 
21 1 -2.84244 -3.56865 -2.66382 
421 1 -1.0115 -2.22652 -4.72266 
236 1 -1.98054 -2.77443 -4.16257 
313 1 -1.07938 -2.48049 -3.84714 
1370 2 -0.562599 -3.45824 -4.27838 
1581 2 0.293523 -2.89468 -4.202 
597 1 -0.269383 -2.26138 -3.5372 
1083 2 1.08764 -2.72744 -4.01533 
1401 2 1.98152 -2.62764 -3.50336 
1259 2 2.8205 -2.22497 -3.61441 
277 1 2.88548 -3.33691 -3.70348 
25 1 4.48349 -2.40553 -4.35327 
914 1 3.56297 -2.94338 -3.78826 
602 1 4.40846 -2.75684 -3.55559 
1201 2 5.48656 -3.50165 -3.83788 
205 1 -5.75195 -2.03131 -4.01173 
214 1 5.31424 -2.12761 -4.17698 
592 1 -4.96923 -1.70184 -3.73889 
1498 2 -5.22338 -0.631006 -3.57841 
58 1 -4.01326 -1.19629 -4.1979 
734 1 -4.32378 -1.50545 -3.23624 
505 1 -3.06992 -0.821346 -4.17331 
917 1 -3.30639 -1.11572 -3.3997 
1086 2 -2.92281 -1.8578 -4.49503 
1808 2 -3.10714 -2.15593 -3.1615 
1781 2 -2.19788 -1.79477 -3.73711 
1097 2 -2.2094 -1.30606 -4.47065 
1801 2 -1.38345 -1.2463 -4.22919 
2046 2 -1.45661 -1.71725 -3.42465 
1644 2 -0.538122 -0.915179 -3.91734 
674 1 -0.229035 -1.85 -4.40265 
1819 2 0.366991 -0.744082 -3.72588 
35 1 0.570463 -1.61071 -4.4007 
367 1 0.60344 -1.89058 -3.50275 
768 1 1.40257 -1.48003 -4.00899 
427 1 1.56915 -1.75472 -3.16581 
106 1 2.19147 -1.10486 -3.92595 
199 1 3.03747 -0.808085 -3.64977 
1030 2 3.34099 -1.61173 -4.18188 
2036 2 4.11399 -1.61411 -3.85986 
116 1 3.80897 -0.631506 -3.45459 
2035 2 4.91156 -1.28664 -3.81071 
1436 2 -5.97827 -0.976663 -3.6362 
1212 2 -5.37702 -0.339483 -4.30897 
697 1 -5.6767 0.628573 -3.96452 
1830 2 -4.51647 -0.127767 -4.0173 
2028 2 -3.66092 0.417925 -4.57416 
1184 2 -3.71653 -0.0431451 -3.75515 
767 1 -2.35971 -0.442987 -3.85111 
1736 2 -2.81438 0.426034 -3.68644 
2022 2 -2.03878 0.404751 -3.10717 
1643 2 -2.76822 0.665017 -4.49588 
799 1 -0.798096 0.278825 -4.56154 
419 1 -1.59509 -0.144799 -3.97144 
59 1 -0.765139 0.0767555 -3.74355 
499 1 0.177316 0.528077 -4.35878 
517 1 -0.0149814 0.187263 -3.42127 
1916 2 1.87325 -0.154397 -3.51388 
1143 2 1.14076 -0.36354 -3.77929 
1517 2 2.70167 0.116896 -3.29279 
1223 2 1.56045 -0.0285937 -4.51283 
846 1 2.9952 -0.547618 -4.61404 
1963 2 2.38622 0.21418 -4.37462 
700 1 3.79202 -0.291042 -4.3189 
1456 2 3.3875 0.626231 -4.13704 
469 1 4.62044 -0.328711 -3.50372 
302 1 4.6121 -0.056547 -4.29105 
1163 2 5.88085 -0.613786 -4.50038 
109 1 5.39689 0.176397 -4.05563 
338 1 -5.47126 0.796294 -4.80087 
752 1 -4.92438 0.786184 -3.68376 
354 1 -4.60941 1.17629 -4.4491 
1654 2 -5.02226 2.27062 -4.60206 
164 1 -3.85768 1.22796 -4.01946 
613 1 -4.08437 0.819073 -3.38622 
489 1 -3.14494 1.60491 -4.09662 
843 1 -2.3559 1.83913 -3.73909 
1550 2 -1.94286 0.835805 -3.90452 
982 1 -3.1909 1.20555 -3.21022 
1149 2 -1.18829 1.16344 -4.08045 
1187 2 -0.350588 1.75614 -4.67471 
1104 2 -0.305905 1.36458 -3.83256 
1310 2 0.48621 1.63354 -3.82681 
492 1 0.99227 0.62156 -4.0536 
1683 2 0.45913 2.10778 -4.70608 
594 1 1.66793 1.08097 -4.02651 
1838 2 1.30056 1.81317 -3.48151 
621 1 2.31785 1.57938 -4.55942 
894 1 3.10155 1.80142 -4.44283 
1011 1 2.35953 1.17471 -3.73738 
731 1 3.1703 1.56604 -3.5283 
1172 2 4.30939 1.32491 -4.57694 
2008 2 4.33044 0.946157 -3.81112 
171 1 3.87886 1.88974 -3.57461 
1986 2 5.92811 1.75895 -4.42758 
1497 2 5.14292 1.45823 -4.48602 
1068 2 5.10305 1.1094 -3.66258 
772 1 -5.53965 3.06369 -4.15883 
26 1 -5.40954 2.67118 -3.3455 
369 1 -4.51338 2.95302 -3.42229 
1728 2 -3.43476 2.89301 -4.40145 
1938 2 -4.30897 2.10499 -3.71579 
1794 2 -3.47868 2.52923 -3.56025 
719 1 -2.46812 2.05606 -4.578 
1625 2 -2.53863 2.94024 -4.13355 
1607 2 -2.5893 2.72029 -3.29864 
208 1 -1.49831 2.05279 -3.68339 
561 1 -1.51831 2.45606 -4.4822 
134 1 -0.75729 2.26079 -3.33102 
115 1 -0.649099 2.61323 -4.19266 
397 1 0.266211 2.87326 -4.01735 
1506 2 1.33878 2.1685 -4.21869 
379 1 1.10737 3.09057 -3.77793 
2020 2 2.16413 2.60841 -4.08439 
1214 2 2.99339 2.81235 -3.54125 
1999 2 3.41743 3.0794 -4.17248 
1562 2 4.28996 3.08966 -3.62664 
702 1 3.878 2.2541 -4.31501 
676 1 5.56663 2.97545 -4.87618 
869 1 5.58406 2.49396 -4.0259 
726 1 4.80623 2.23769 -4.0139 
1333 2 5.69209 3.7975 -3.83587 
1275 2 -5.40475 4.19368 -3.7917 
797 1 -4.7601 3.41191 -4.19995 
1636 2 -5.90724 3.52942 -3.02174 
446 1 -3.85273 3.74309 -4.08679 
1957 2 -4.17586 4.57355 -3.56234 
250 1 -2.8842 4.35697 -4.55001 
340 1 -3.09056 3.82956 -3.75077 
612 1 -2.38078 4.19613 -3.76631 
1175 2 -1.79987 3.28327 -4.02112 
1824 2 -0.960683 3.86537 -4.63013 
86 1 -2.21969 4.82004 -4.77719 
1268 2 -0.986424 3.54885 -3.73933 
111 1 -1.54335 4.42381 -3.23783 
1354 2 -0.0537791 4.05783 -4.52107 
1926 2 -0.187114 3.78902 -3.67931 
1304 2 0.729042 4.37621 -4.30939 
1183 2 0.569587 4.17192 -3.57654 
510 1 1.64378 3.62186 -4.33388 
1161 2 1.38943 4.29348 -3.11249 
1847 2 1.5722 4.64008 -4.02417 
709 1 2.51854 4.03837 -4.47548 
885 1 1.8979 3.50513 -3.55771 
835 1 3.25235 4.24408 -4.14446 
2039 2 3.48016 3.66588 -5.22866 
1439 2 4.04837 3.55933 -4.52845 
662 1 4.14536 4.46966 -3.87604 
1971 2 4.83606 3.61484 -4.21066 
1994 2 5.04749 3.29266 -3.27205 
1575 2 -4.94129 4.57847 -4.49865 
435 1 -5.22359 5.62363 -4.24022 
918 1 -5.32007 5.18344 -3.45159 
1038 2 -4.12603 4.8479 -4.41978 
825 1 -4.48975 5.81993 -3.94718 
1329 2 -3.30676 4.92324 -3.56118 
1353 2 -3.47691 5.32613 -4.29029 
1236 2 -2.57575 5.54083 -4.15055 
568 1 -1.56751 4.69472 -4.18759 
1335 2 -1.61947 5.69676 -4.02338 
495 1 0.244239 5.187 -3.88817 
628 1 -0.615151 4.95626 -4.20658 
575 1 1.12299 5.8184 -4.4108 
564 1 1.06928 5.44462 -3.65782 
442 1 1.77951 5.90397 -3.45333 
1875 2 2.96999 5.35972 -4.52487 
1667 2 2.24615 4.92554 -4.208 
1955 2 2.93479 5.11528 -3.58784 
1704 2 3.70514 5.72684 -4.38292 
443 1 4.88167 4.66294 -3.7932 
699 1 4.91317 5.04329 -4.6241 
579 1 5.82433 5.22189 -4.32696 
775 1 5.72019 4.81038 -3.49066 
1489 2 4.6497 5.63995 -3.25417 
1197 2 -4.88179 -5.55171 -2.5673 
1285 2 -5.60637 -5.76915 -2.94687 
130 1 5.72734 -4.99018 -2.47069 
1454 2 -4.02005 -5.31492 -2.44564 
993 1 -3.7966 5.80974 -3.15301 
1047 2 -3.12094 -4.96049 -2.39301 
1783 2 -3.22355 -4.62495 -3.21362 
1613 2 -2.42094 -4.68878 -2.13074 
260 1 -2.00622 -5.70812 -2.5251 
295 1 -2.89519 -5.93366 -3.00545 
805 1 -1.23443 -5.13732 -3.00472 
453 1 -1.22146 -5.48892 -2.24675 
413 1 -0.383956 -4.67874 -3.3594 
5 1 -0.338237 -5.05301 -2.39629 
661 1 0.526928 -4.94798 -1.91792 
1742 2 0.694362 -5.4957 -3.2392 
1747 2 0.963626 -5.85814 -2.38548 
1678 2 1.5734 -5.06597 -3.03623 
1319 2 1.60818 -5.45776 -2.24486 
180 1 2.5509 -5.88261 -3.28715 
1887 2 2.53597 -5.35207 -1.91667 
1082 2 2.3978 -5.02107 -2.63545 
1844 2 3.18143 -4.68793 -2.76287 
422 1 3.4358 -5.70013 -3.03024 
284 1 4.18734 -5.46941 -3.00682 
586 1 4.14393 -5.95245 -2.17647 
798 1 5.07029 -5.24139 -2.74428 
142 1 5.06348 -5.69557 -1.92412 
246 1 -5.11936 -4.31276 -2.97646 
542 1 -5.35537 -4.71773 -2.2712 
1657 2 -5.27758 -3.16477 -2.61684 
411 1 -4.42038 -3.88859 -2.92062 
153 1 -4.51125 -4.40818 -2.06877 
524 1 -3.59948 -3.84263 -2.3882 
366 1 -3.78264 -4.35021 -1.63919 
1843 2 -2.26394 -4.32872 -3.07576 
46 1 -2.88729 -3.84778 -1.70494 
1327 2 -1.40809 -4.20922 -2.73752 
1209 2 -1.49588 -4.51427 -1.88559 
1645 2 0.128892 -3.28532 -3.48736 
326 1 0.431335 -4.71106 -2.70011 
1896 2 -0.613825 -3.98607 -2.29983 
1878 2 0.226734 -3.68141 -2.58093 
938 1 1.20457 -4.28476 -2.48429 
1848 2 0.927659 -3.38202 -1.87353 
471 1 1.99946 -3.86272 -3.24751 
999 1 2.81292 -3.59846 -2.90008 
245 1 1.91803 -4.03177 -2.42811 
1001 1 2.85588 -3.91715 -2.12185 
1928 2 3.99847 -4.74533 -2.40179 
754 1 3.83202 -3.68227 -2.12344 
1240 2 5.85548 -3.6453 -3.08958 
1194 2 4.88516 -4.04689 -2.97176 
1409 2 4.83042 -4.31142 -2.20042 
1530 2 5.65025 -3.88774 -2.29395 
213 1 -5.76379 -2.41409 -2.36276 
1817 2 -4.38244 -3.05044 -2.3924 
2007 2 -4.76346 -2.83858 -3.24465 
1052 2 -3.51059 -2.79991 -2.43711 
1745 2 -3.87682 -2.57176 -3.20012 
1391 2 -2.11448 -2.03048 -2.8468 
1505 2 -2.53694 -2.39569 -2.17518 
71 1 -2.13353 -3.29441 -2.39448 
664 1 -1.90259 -2.94998 -3.25731 
388 1 -1.02302 -2.79105 -2.95668 
753 1 -1.26125 -3.08724 -2.2736 
1459 2 -1.54003 -2.16601 -1.76229 
1006 1 -0.135072 -2.55619 -2.68844 
657 1 -0.279763 -2.90358 -2.02378 
573 1 0.772699 -2.18795 -2.59245 
1982 2 0.889303 -3.21151 -3.03959 
1894 2 1.67792 -3.00871 -2.75112 
287 1 1.54642 -1.81639 -2.26165 
1066 2 1.79555 -3.18503 -1.9478 
1263 2 2.42906 -2.63884 -2.85754 
1973 2 3.31192 -2.61669 -2.45627 
1676 2 3.44989 -1.9868 -3.13557 
296 1 3.5623 -3.4169 -3.03465 
1754 2 4.21348 -2.25256 -2.29784 
740 1 5.22368 -2.50443 -3.39491 
137 1 4.63675 -3.17251 -2.72544 
609 1 5.37557 -2.76145 -2.47616 
1876 2 -5.21029 -0.778134 -2.5329 
161 1 -5.11492 -1.89368 -2.96211 
1346 2 -5.83351 -1.15283 -2.75824 
1972 2 5.74878 -1.48202 -1.99635 
722 1 -4.31044 -1.77844 -2.18969 
833 1 -4.9315 -2.20909 -2.03131 
630 1 -2.39745 -0.842011 -3.09151 
275 1 -3.52402 -1.45641 -2.63575 
285 1 -2.4913 -1.15885 -2.46781 
1870 2 -1.31617 -1.6735 -2.54717 
1235 2 -0.56622 -1.71262 -2.29962 
117 1 -1.4755 -0.864869 -2.2155 
1057 2 -0.617684 -1.30852 -3.09328 
1113 2 0.297559 -1.18596 -2.91431 
1659 2 0.195205 -1.39018 -2.06459 
1796 2 1.0551 -0.811595 -2.96124 
1568 2 0.965349 -1.10703 -1.96395 
334 1 2.36552 -1.36388 -3.13122 
215 1 2.32642 -1.81362 -2.30464 
715 1 3.11128 -1.19566 -2.71256 
692 1 3.91957 -0.848189 -2.67172 
1350 2 4.29138 -1.8436 -2.99381 
1110 2 5.14353 -1.51331 -2.95448 
876 1 4.85209 -0.563275 -2.63144 
689 1 -4.85568 0.346129 -2.75505 
190 1 -5.72058 0.30026 -3.07977 
241 1 -5.31772 0.0673725 -2.06316 
1589 2 -4.49567 -0.53938 -3.25886 
1962 2 -4.3987 -0.746181 -2.18106 
1834 2 -3.80167 -0.290222 -2.90803 
32 1 -3.96968 0.660558 -2.5538 
1514 2 -3.54805 -0.485506 -2.09395 
1761 2 -2.95984 0.0112996 -2.83839 
1507 2 -1.93346 0.0275726 -2.30909 
449 1 -1.67751 -0.642868 -3.1496 
750 1 -0.791023 -0.384165 -2.81362 
2043 2 -1.21621 0.514475 -2.31685 
898 1 -0.0101768 -0.153898 -2.71035 
963 1 0.742183 -0.153182 -2.25223 
464 1 0.884368 0.366061 -3.01935 
783 1 1.42523 0.502293 -2.37552 
1360 2 1.94102 -0.446296 -2.79081 
1673 2 3.50723 0.406208 -3.26987 
2027 2 2.70794 -0.3841 -2.45582 
1953 2 4.34196 0.646917 -2.94009 
1952 2 3.46453 0.102394 -2.48054 
1861 2 5.27913 0.726673 -2.66725 
691 1 5.37243 -0.198877 -3.35322 
654 1 5.70116 -0.176083 -2.40689 
1132 2 -5.26092 1.84981 -3.86943 
1229 2 -4.8022 1.40915 -2.03718 
1512 2 -4.7979 1.48433 -2.90838 
1776 2 -3.91416 1.6185 -2.10355 
1520 2 -4.01881 1.841 -3.00416 
686 1 -3.25551 0.89584 -2.39644 
585 1 -2.4538 1.47584 -3.02681 
259 1 -2.4461 0.954065 -2.13202 
614 1 -1.65044 1.76229 -2.81787 
1893 2 -1.18816 0.828125 -3.15346 
919 1 -0.795424 1.89413 -2.48461 
307 1 -1.63824 1.39976 -1.92247 
1067 2 -0.436888 0.839139 -2.22504 
1340 2 -0.442934 1.03862 -3.00837 
1860 2 0.379405 1.31265 -2.81259 
50 1 1.6949 0.834693 -3.15822 
1642 2 1.15883 1.55917 -2.57123 
90 1 2.33712 0.641682 -2.17426 
1967 2 2.045 1.89075 -2.47155 
874 1 3.30768 1.45989 -2.75484 
1021 1 2.55631 1.04331 -2.86646 
381 1 4.0655 1.52172 -2.43325 
1858 2 5.89182 1.42896 -3.49726 
1724 2 -5.62985 1.42263 -2.6326 
104 1 4.8527 1.87895 -2.30654 
232 1 4.80326 1.95985 -3.24288 
631 1 -5.42566 2.38848 -2.45521 
194 1 -4.66486 2.72245 -2.57272 
761 1 -5.16548 2.19724 -1.56367 
2038 2 -3.28265 2.10296 -2.75261 
966 1 -3.71814 2.98553 -2.28807 
460 1 -3.77473 3.39536 -3.19933 
1415 2 -2.57961 2.3817 -2.42834 
1476 2 -1.7302 3.00506 -3.26408 
1959 2 -1.74798 2.66772 -2.33644 
1107 2 -1.17268 2.88762 -1.85654 
1756 2 -0.9566 3.13371 -2.70014 
896 1 0.161273 2.41146 -3.42199 
143 1 0.124974 2.28646 -2.54456 
1616 2 -0.368366 3.1069 -2.04885 
124 1 1.69365 2.99811 -2.7775 
828 1 0.91144 2.9244 -3.05094 
747 1 0.97218 2.55675 -2.20493 
478 1 1.85506 2.68255 -1.89744 
1786 2 3.05074 2.06701 -1.8591 
1158 2 2.05765 2.16679 -3.36351 
1461 2 2.88132 2.49203 -2.7847 
742 1 2.55036 3.42235 -2.6209 
1522 2 3.78371 2.86012 -3.00692 
1330 2 4.5752 2.90717 -2.63011 
1866 2 3.74514 2.49342 -2.29813 
7 1 5.69381 2.08731 -2.10822 
811 1 5.60369 2.41315 -3.03866 
1026 2 5.33785 3.16219 -2.3943 
1276 2 -5.71927 3.38454 -2.16615 
1825 2 -5.00921 3.87677 -3.02644 
1399 2 -4.94707 3.68142 -2.07018 
1669 2 -4.26577 4.19981 -2.70391 
1419 2 -3.40213 4.65249 -2.77258 
323 1 -2.79796 3.33349 -2.03469 
276 1 -3.00639 3.46238 -2.79497 
520 1 -2.21148 3.89946 -2.96684 
733 1 -1.31943 4.09242 -2.52057 
1689 2 -0.0313235 3.37415 -2.93876 
266 1 -0.547978 4.33806 -2.59849 
1372 2 0.625337 3.74065 -2.64005 
1071 2 1.42618 3.89252 -2.40407 
884 1 2.78817 3.82815 -3.47237 
1668 2 2.17152 4.59395 -3.3 
2040 2 2.15556 4.26095 -2.34621 
1981 2 2.93436 4.49199 -1.9659 
183 1 3.1834 3.59221 -2.40484 
394 1 3.62138 3.95181 -3.24611 
580 1 4.08433 3.8087 -2.24432 
961 1 4.92668 4.1844 -2.13442 
448 1 4.63493 4.25205 -2.98869 
552 1 -5.33486 4.76844 -2.65754 
1534 2 -5.76902 5.76078 -2.2371 
262 1 -4.56842 5.44688 -3.16791 
342 1 -4.53727 5.15873 -2.41461 
119 1 -3.8196 5.52369 -2.27436 
1287 2 -2.49228 4.56972 -2.39555 
1334 2 -2.5018 5.09864 -3.18725 
1348 2 -1.77901 5.49995 -3.19358 
1339 2 -1.81925 5.15278 -2.4117 
1338 2 -0.943777 5.59442 -2.92228 
1880 2 -1.02209 5.25292 -2.10113 
836 1 0.0942748 4.69591 -2.14256 
720 1 -0.712898 4.65997 -3.29956 
1818 2 -0.0403552 5.84598 -2.45688 
503 1 0.0939787 4.87891 -3.10977 
652 1 0.924275 5.126 -2.71114 
667 1 0.934978 4.63527 -1.97816 
648 1 1.7601 5.42771 -2.69801 
49 1 1.87048 4.98872 -1.88041 
425 1 2.48708 5.75431 -2.48741 
1093 2 2.9552 4.90865 -2.68533 
1691 2 3.84494 5.42631 -3.48576 
461 1 3.26525 5.9529 -2.29148 
1244 2 3.71754 4.95744 -2.69281 
1394 2 5.57717 5.86293 -3.22507 
432 1 5.72699 4.35612 -2.60549 
1593 2 4.60342 5.15411 -2.4937 
1312 2 5.43922 5.32583 -2.44069 
864 1 -5.14733 -4.90845 -1.43609 
988 1 -5.89921 -5.5022 -0.70476 
1822 2 -4.97507 -5.88216 -1.86985 
452 1 5.84662 -5.23421 -1.59344 
456 1 -4.99791 -5.25624 -0.57658 
1292 2 -4.21674 -5.72058 -1.6358 
182 1 -4.31309 -4.71809 -1.14587 
1782 2 -3.50157 -5.68292 -0.90406 
1404 2 -3.11159 -5.30572 -1.66662 
1582 2 -2.33242 -5.13317 -1.31476 
1932 2 -1.55996 -4.90196 -1.00515 
1753 2 -0.357834 -4.67816 -0.73435 
934 1 -1.23644 -5.85955 -1.33555 
954 1 -2.06832 5.79419 -1.61621 
147 1 -0.52021 -5.4845 -1.40874 
459 1 0.353561 -5.30351 -1.21151 
1540 2 0.680337 5.57269 -1.59165 
317 1 1.10774 -5.09559 -0.96172 
569 1 1.30338 -4.62533 -1.5991 
1081 2 1.41464 5.9278 -1.51322 
1864 2 2.20408 -5.78131 -1.198 
1199 2 3.00915 -5.4164 -1.1296 
1563 2 3.36873 -4.97108 -1.76633 
1749 2 4.25499 -5.08924 -1.54619 
1309 2 3.81048 -5.18376 -0.796529 
65 1 5.27532 -5.88257 -0.989489 
1859 2 4.92956 -4.6572 -1.2811 
1767 2 -5.54362 -3.7451 -1.84984 
1217 2 -5.71446 -4.2247 -1.06264 
1664 2 -4.79942 -3.45225 -1.62712 
1400 2 -4.86459 -3.91552 -0.851875 
248 1 -3.40442 -4.41772 -0.930379 
890 1 -1.93846 -3.61651 -1.54033 
324 1 -2.39298 -4.24288 -0.925661 
51 1 -1.14268 -3.44484 -1.27233 
677 1 -0.162386 -3.24863 -1.21985 
986 1 -1.49862 -3.91079 -0.574473 
1802 2 -0.681571 -4.42654 -1.5509 
1246 2 0.119716 -4.0885 -1.69133 
1051 2 0.366384 -4.27484 -0.760317 
1580 2 0.907267 -3.76627 -1.10218 
1698 2 1.93922 -3.5337 -1.17091 
249 1 2.05945 -4.42889 -1.73386 
140 1 2.69964 -4.26961 -1.3401 
550 1 3.55791 -4.08877 -1.37831 
291 1 4.60682 -3.40854 -1.92814 
522 1 4.26011 -3.84366 -1.11829 
2017 2 5.4925 -4.23999 -1.60813 
562 1 5.3523 -3.50271 -0.936237 
968 1 -4.93947 -2.54293 -1.1089 
636 1 -5.75549 -2.73804 -1.4478 
311 1 -4.97883 -2.9997 -0.368245 
928 1 -5.82415 -3.17754 -0.547344 
1924 2 -3.9723 -3.18876 -1.50544 
683 1 -4.11643 -2.09737 -1.31522 
948 1 -3.38415 -2.32537 -0.724603 
1442 2 -3.05346 -2.85847 -1.54529 
1216 2 -2.26918 -2.62602 -0.964537 
1121 2 -1.29137 -2.4171 -0.979657 
1449 2 -0.535181 -1.98748 -1.58148 
1416 2 -0.321235 -2.09555 -0.712536 
830 1 0.591735 -2.87091 -0.912767 
526 1 0.57172 -2.41802 -1.84052 
211 1 1.53807 -2.25847 -1.58186 
705 1 1.50665 -2.54839 -0.845107 
1991 2 2.81074 -3.225 -0.999521 
566 1 2.44404 -2.18167 -1.25623 
1457 2 2.59839 -2.92537 -1.86521 
1123 2 4.33359 -2.5142 -1.39018 
1533 2 3.48883 -2.9945 -1.50073 
1326 2 3.89555 -2.99616 -0.582897 
784 1 5.4307 -3.0376 -1.61128 
1978 2 5.21504 -2.14851 -1.10692 
1641 2 -5.38094 -1.23757 -1.6794 
2005 2 -5.17963 -1.64923 -0.672511 
1760 2 -4.6546 -0.966703 -1.42328 
1206 2 -3.63103 -0.809818 -1.30766 
219 1 -3.32856 -1.79356 -1.72402 
447 1 -2.45761 -1.32927 -1.64042 
1826 2 -2.77932 -0.593556 -1.04246 
548 1 -1.54987 -1.26649 -1.43278 
757 1 -0.723125 -1.01521 -1.13476 
1827 2 0.352401 -1.64295 -1.28146 
1177 2 1.3248 -1.38292 -1.13066 
588 1 0.149595 -0.804778 -0.867184 
1777 2 1.87171 -0.795889 -1.90574 
1493 2 2.16391 -1.0842 -1.20345 
377 1 3.11882 -1.65833 -1.94521 
839 1 3.40093 -1.87386 -1.16106 
1897 2 2.96162 -1.06155 -0.571718 
518 1 3.93046 -1.25673 -1.99057 
125 1 4.14721 -1.42434 -1.16152 
1279 2 4.89857 -1.886 -2.18904 
222 1 4.98063 -1.22007 -0.9603 
958 1 4.67382 -0.967883 -1.8638 
1028 2 -5.86367 -1.6311 -1.12361 
962 1 5.60705 -0.525404 -1.65607 
230 1 -5.64745 -0.379411 -1.07191 
900 1 -4.89384 0.0451256 -1.19164 
1680 2 -5.84371 0.653049 -0.953174 
297 1 -4.49691 0.358929 -1.90244 
278 1 -3.74471 0.437425 -1.52145 
921 1 -4.04443 -0.0356166 -0.895578 
1098 2 -2.85836 -0.199358 -1.83367 
1323 2 -2.0222 -0.0445259 -1.4344 
1031 2 -1.90134 -0.406249 -0.536842 
1432 2 -1.09614 0.266898 -1.5952 
160 1 -0.521646 -0.612573 -1.98802 
1128 2 -0.272845 0.580415 -1.29503 
615 1 0.212479 -0.358029 -1.63759 
601 1 1.40452 0.168499 -1.55866 
870 1 0.856668 -0.401054 -0.9675 
776 1 1.65638 -0.28515 -0.713767 
1832 2 2.93337 -0.565246 -1.56733 
243 1 2.39963 0.312196 -1.30962 
858 1 3.20962 0.711013 -1.2022 
1282 2 4.45663 0.389775 -1.95982 
1696 2 3.6627 -0.131103 -1.63917 
1502 2 4.62537 -0.0937659 -1.24886 
1803 2 5.46742 0.663309 -1.77856 
2030 2 5.23555 0.353623 -0.804321 
1508 2 -4.84661 0.832089 -0.352812 
1720 2 -5.65364 0.985492 -1.79079 
1672 2 -5.03185 1.03516 -1.16465 
1003 1 -5.44356 1.82472 -0.797541 
1170 2 -3.23544 1.54481 -0.969319 
1305 2 -4.21507 1.27553 -1.25067 
189 1 -2.96076 0.623775 -1.22803 
1622 2 -2.37531 1.84448 -0.855968 
94 1 -2.02978 0.848212 -1.26007 
192 1 -0.77168 1.70421 -1.63689 
910 1 -1.18952 1.19352 -1.10655 
1297 2 0.483251 0.954449 -1.90275 
76 1 0.0148645 1.96491 -1.7636 
240 1 -0.29537 1.45489 -0.781497 
1811 2 1.24665 1.30113 -1.63364 
1726 2 1.61008 0.978668 -0.876491 
1735 2 0.615471 0.802885 -1.00021 
1681 2 2.10463 1.40393 -1.58382 
16 1 3.22669 0.969843 -1.99024 
1874 2 2.88166 1.66677 -1.20001 
231 1 4.20715 1.24985 -1.50221 
84 1 4.02684 0.80327 -0.806253 
1017 1 4.91952 1.53432 -1.41381 
944 1 5.75116 1.94618 -1.375 
1278 2 -5.68821 3.04408 -1.33821 
1886 2 -5.85 2.7765 -0.419451 
1960 2 -4.83737 3.23493 -1.32894 
926 1 -4.30033 2.50133 -1.75165 
298 1 -3.46227 2.67706 -1.44432 
110 1 -4.68016 2.00304 -0.730826 
69 1 -3.91537 2.38664 -0.860253 
1839 2 -3.03302 1.84333 -1.73842 
2021 2 -2.15608 2.19003 -1.57538 
696 1 -2.60512 3.16367 -1.17603 
879 1 -1.7898 3.49631 -0.954418 
1092 2 -1.52793 2.40812 -1.1852 
937 1 0.715135 2.17171 -1.4938 
1428 2 -0.511551 2.70558 -1.27384 
1405 2 0.23318 2.91511 -0.922116 
114 1 1.4903 2.29888 -1.30781 
34 1 2.69351 3.02727 -1.8321 
786 1 2.48916 2.66203 -1.11965 
181 1 3.60452 3.32915 -1.59802 
1718 2 3.70397 2.06675 -1.22821 
582 1 3.28058 2.99018 -0.829975 
1065 2 4.57077 2.69289 -1.81068 
1977 2 4.5564 2.41188 -0.828275 
1527 2 5.397 3.02432 -1.54999 
1328 2 5.29888 2.61664 -0.654728 
679 1 -5.23472 4.22075 -0.939163 
1325 2 -4.14908 3.92209 -1.77962 
1056 2 -4.06682 3.58693 -1.03862 
1601 2 -3.33704 4.2713 -1.9204 
418 1 -2.06674 3.51789 -2.05908 
1155 2 -3.29407 3.71811 -0.83081 
1344 2 -2.66321 4.35033 -1.45696 
165 1 -1.29819 3.88191 -1.69155 
627 1 -0.901012 3.77127 -0.993884 
487 1 0.289593 4.32303 -1.42061 
985 1 -0.350808 4.09118 -1.79819 
1679 2 0.42019 3.32598 -1.74366 
187 1 0.0159994 3.84555 -0.838119 
1917 2 1.11463 3.12597 -0.917049 
1997 2 1.41052 3.54656 -1.62022 
1974 2 1.95257 3.46041 -0.688162 
1854 2 2.12487 3.97278 -1.46627 
1126 2 2.98619 4.02543 -1.17295 
974 1 4.41547 3.58457 -1.46496 
1612 2 3.81184 4.47598 -1.28085 