ITEM: TIMESTEP
10900
ITEM: NUMBER OF ATOMS
2048
ITEM: BOX BOUNDS pp pp pp
-5.9220712915972582e+00 5.9220712915972582e+00
-5.9220712915972582e+00 5.9220712915972582e+00
-5.9220712915972582e+00 5.9220712915972582e+00
ITEM: ATOMS id type x y z 
1002 1 5.60993 5.91425 -5.78212 
1192 2 -5.06086 -4.82637 -5.01126 
1358 2 -5.20727 -5.0239 -4.13869 
440 1 -5.51282 -5.58971 5.77423 
412 1 -4.62487 -5.56097 5.91909 
825 1 -4.68502 -5.74182 -5.14594 
91 1 -3.1295 -5.02669 -5.27326 
333 1 -3.9441 -5.44475 -4.50704 
1542 2 -2.28002 5.6384 -4.57922 
1291 2 -1.85602 -5.6417 -5.30637 
1035 2 -1.08397 -5.2748 -5.48823 
1334 2 -0.600421 -5.30629 -4.76243 
1429 2 0.300722 -5.14228 -4.92775 
495 1 0.0135801 -5.90053 5.79248 
1694 2 -0.0696387 -4.89203 -5.80484 
822 1 1.33028 -5.52407 -5.71826 
135 1 1.70987 -4.9145 5.29409 
648 1 1.82664 -5.5469 -5.00219 
723 1 2.05762 -5.15422 -5.76455 
64 1 3.83179 -4.58446 -5.12017 
1677 2 3.90244 -5.34275 5.87151 
809 1 4.52236 -4.46926 -4.53838 
1272 2 5.8018 -5.14253 -4.7147 
1799 2 5.28738 -5.08585 -5.42226 
1875 2 4.90216 -5.5407 -4.51829 
1849 2 -5.7812 -4.80103 -5.45056 
273 1 -4.50461 -3.69947 -4.3744 
991 1 -4.39879 -3.17233 -5.40289 
223 1 5.67249 -3.79561 -5.46502 
1548 2 -3.72442 -4.27861 -4.82996 
1663 2 -3.7146 -3.91961 -5.75237 
2016 2 -4.36594 -4.35876 -5.53681 
1261 2 -3.04187 -3.68073 -5.3067 
1711 2 -1.73069 -3.2378 -5.31603 
855 1 -1.53772 -4.2834 -5.24736 
2009 2 -2.37206 -3.59945 -4.6989 
1004 1 -1.83294 -4.08133 5.77894 
416 1 -0.55755 -4.01251 -5.36954 
227 1 0.025489 -4.09465 -4.51911 
924 1 0.205536 -3.32606 5.64563 
819 1 0.303035 -3.71465 -5.32823 
1746 2 0.788129 -4.64603 -5.39088 
1790 2 1.82116 -4.18433 -5.54905 
1709 2 1.40961 -4.56861 -4.8297 
1129 2 2.94765 -4.15658 -4.40016 
1232 2 2.44431 -3.61335 5.70907 
429 1 4.11459 -4.18606 5.77427 
1995 2 4.45477 -3.2581 -5.12023 
1475 2 3.66269 -3.65002 -4.69395 
75 1 5.0175 -3.75279 5.64315 
1937 2 -5.4997 -2.74819 -4.6349 
1588 2 -5.05997 -2.11423 -5.81487 
218 1 -3.90875 -3.23085 -4.5797 
1745 2 -4.12171 -2.00758 -4.59506 
269 1 -3.55 -2.73197 -5.27125 
391 1 -2.57977 -1.83961 5.56016 
402 1 -2.8188 -2.40502 -5.63817 
196 1 -2.43839 -2.37732 -4.88856 
151 1 -1.74743 -2.12885 -5.31668 
1379 2 -0.864042 -3.0378 -5.19057 
1255 2 -0.488732 -2.58142 -5.72065 
1909 2 0.416429 -2.12984 5.82818 
1555 2 0.469562 -2.68385 -4.43348 
1581 2 -1.42776 -3.54929 -4.51101 
1763 2 0.0351923 -2.7474 -5.18332 
939 1 2.27692 -2.9143 -5.46966 
202 1 1.12039 -3.3592 -5.4318 
1525 2 0.873326 -2.41267 -5.31333 
169 1 3.01221 -2.32981 -5.93236 
475 1 3.45566 -2.38914 -5.04333 
975 1 3.37583 -1.93906 5.27575 
485 1 4.03472 -2.50872 -4.48075 
1070 2 3.60104 -3.44488 -5.59266 
609 1 4.56489 -1.95462 -5.13087 
779 1 3.92304 -1.91556 -5.83534 
1929 2 4.47053 -2.79484 5.84243 
1465 2 -5.79006 -2.40629 -5.60434 
730 1 -4.94021 -0.833069 5.86637 
214 1 -3.54266 -0.596641 -4.52096 
1341 2 -4.16649 -1.84459 -5.49917 
1733 2 -3.27478 -1.60215 -5.19371 
505 1 -3.1734 -0.296005 -5.30376 
1809 2 -2.7549 -0.950295 -5.6586 
1569 2 -3.19513 -0.945647 5.32012 
1908 2 -1.65233 -0.870454 -5.22061 
1478 2 -0.974379 -0.709243 -4.85545 
1345 2 -1.91811 -0.704062 5.92507 
387 1 -1.87108 -1.74476 5.77674 
595 1 -0.78858 -1.36461 5.5925 
556 1 -0.133078 -0.952674 5.68467 
578 1 0.851464 -0.909832 -5.9307 
1964 2 2.42171 -1.46013 -5.58631 
768 1 1.28429 -0.896535 -5.14545 
560 1 2.10966 -0.919523 -4.67929 
1190 2 2.01238 -2.16234 -4.85846 
1775 2 2.77369 -1.70631 -4.98517 
1224 2 3.56457 -1.25273 -5.25059 
2036 2 4.17588 -1.15716 -4.6628 
543 1 -5.53568 -1.25241 -5.52172 
771 1 5.14676 -1.49961 -5.81855 
740 1 5.58271 -1.58412 -5.09195 
1623 2 4.83673 -0.717583 -5.10106 
1830 2 5.88622 -0.336434 -5.27996 
1498 2 -5.15734 0.162319 -5.70689 
2028 2 -4.41868 0.562334 -5.8123 
932 1 -4.15664 -0.632358 -5.25699 
55 1 -3.96316 -0.32426 5.78493 
701 1 -2.75927 -0.519567 -4.25751 
374 1 -2.43646 -0.0311241 -4.96916 
1184 2 -3.76542 0.508379 -5.12931 
1414 2 -0.971114 -0.414726 -5.77376 
212 1 -1.37467 0.310108 -4.99719 
749 1 -1.75331 -0.175989 -4.24765 
1572 2 -0.293016 -0.50717 -5.14074 
1171 2 0.388014 -0.117517 -5.44005 
1573 2 0.570025 -0.377968 -4.40325 
1963 2 1.16437 0.500277 -5.70476 
1223 2 1.90112 0.550264 -5.18136 
31 1 2.15515 -0.436332 -5.39948 
866 1 2.78764 -0.794473 -4.29517 
700 1 3.73227 -0.25849 -4.33002 
469 1 4.45876 0.158716 -4.74115 
2001 2 5.59824 -0.654817 -4.55325 
818 1 5.49897 0.515167 -4.63484 
1634 2 5.2965 -0.332433 5.87377 
420 1 -5.87751 0.819232 -5.40945 
656 1 -5.30689 1.42189 -5.71801 
338 1 -4.76474 1.29374 -4.88633 
752 1 -4.51406 1.6809 -5.55155 
820 1 -2.94493 2.40711 -5.6384 
1643 2 -3.08942 0.987315 -5.40022 
1050 2 -1.38246 1.4892 -5.27633 
1736 2 -2.7708 0.77651 -4.65608 
1054 2 -1.6636 1.1722 -4.58296 
827 1 -0.667536 0.350504 -4.50896 
408 1 0.800472 1.34646 -5.31721 
829 1 -0.337214 0.653807 -5.29298 
380 1 2.28216 1.97665 -5.4201 
254 1 1.64725 1.48671 -4.99271 
551 1 1.36278 1.74893 -5.76948 
1180 2 2.17995 1.09733 5.88441 
1470 2 2.94801 1.02669 -5.29518 
1011 1 3.53746 2.38048 -5.09157 
1910 2 3.63776 1.0923 -4.6597 
1172 2 4.27188 0.903728 -4.05553 
1845 2 4.07694 1.47944 -5.23309 
319 1 5.4179 0.982906 5.84586 
302 1 5.01381 0.47503 -5.41184 
1204 2 4.65007 1.33453 -4.71549 
1431 2 5.95963 2.01848 -5.22352 
1403 2 -5.44618 2.70425 -5.75099 
1716 2 -5.25527 2.30397 -4.62076 
1620 2 -4.59911 2.72757 -5.28719 
1482 2 -4.06038 2.66511 -4.64325 
264 1 -2.43088 2.79238 5.43921 
1015 1 -2.12568 2.44843 -5.16666 
1175 2 -2.91754 3.27397 -4.90599 
1063 2 -0.640277 1.57909 -4.6436 
494 1 -1.8445 2.78479 -5.83373 
710 1 -0.739471 3.01859 -5.28922 
982 1 -1.48435 2.70986 -4.87867 
1884 2 -0.214884 1.84435 -5.34939 
1298 2 -0.118558 2.39285 5.67499 
1506 2 0.525182 2.53337 -5.59061 
1628 2 1.45618 2.77654 -5.43085 
1653 2 1.07362 2.34557 -4.79627 
895 1 3.10166 2.45991 -5.71117 
1979 2 2.49931 3.29591 -5.4308 
63 1 2.35083 2.24025 5.5614 
894 1 3.68791 1.95189 -3.97593 
621 1 3.95214 2.73388 -5.72739 
171 1 4.30096 2.41253 -4.54896 
396 1 4.77347 2.8516 -5.22207 
1396 2 5.01278 1.78576 -5.36038 
726 1 5.46786 2.93695 -4.58123 
178 1 5.18188 3.34868 5.84336 
923 1 -5.35578 3.39597 -4.72041 
1349 2 -5.53422 4.42438 -4.16466 
644 1 -5.57784 3.78799 -5.60642 
204 1 5.55668 3.45431 -5.18455 
797 1 -3.6754 3.97231 -4.75842 
45 1 -4.50692 3.99484 -5.42028 
509 1 -3.69659 4.45328 -5.75252 
1869 2 -3.71242 3.11206 -5.28898 
1096 2 -3.08735 3.47492 -5.86377 
1824 2 -2.19122 3.73601 -5.45129 
1161 2 -1.31356 3.93792 -5.41193 
1926 2 -0.190354 4.17674 -4.87575 
561 1 0.0220408 3.28347 -5.27259 
1039 2 0.553205 4.42277 -4.7305 
815 1 0.92723 3.60491 -5.10273 
716 1 2.08761 4.04287 -4.93599 
415 1 1.53676 4.07579 -5.80024 
1130 2 2.06003 3.18939 5.80144 
777 1 2.50912 4.39489 -5.57156 
946 1 3.25398 4.64322 -5.5854 
1274 2 3.6401 3.70086 -5.3769 
1342 2 4.1964 4.05264 5.91231 
1640 2 5.58486 4.61269 -5.3523 
1779 2 4.84488 4.24922 -5.19647 
1670 2 -5.51881 5.00307 -5.88704 
1048 2 -5.39049 4.65998 -4.95155 
435 1 -5.48612 5.94127 -5.17764 
1413 2 -4.48744 4.90265 -4.64596 
1353 2 -3.86516 5.30706 -5.12649 
1526 2 -3.13873 5.45562 -4.7688 
1757 2 -1.80226 5.56329 -3.96414 
577 1 -2.36917 4.47692 -4.69494 
755 1 -3.09633 4.42785 -5.14934 
729 1 -2.14 4.94756 -5.40468 
17 1 -1.50664 4.16085 -3.20802 
632 1 -1.44203 4.50136 -4.27785 
687 1 -1.38016 4.95107 -4.88171 
123 1 -0.327985 5.59156 -5.17054 
82 1 -0.657654 5.07346 -4.51713 
1145 2 -0.647582 4.47003 -5.70072 
1354 2 0.283209 4.80433 -5.56402 
1033 2 1.15686 4.99695 -5.63709 
503 1 0.699197 5.79461 -5.4088 
1032 2 1.49846 5.46381 5.43675 
1193 2 1.8949 5.25044 -5.23342 
1846 2 3.28068 5.85507 -5.70351 
501 1 4.12266 4.93817 -5.08117 
48 1 3.95767 5.09912 -5.92638 
1244 2 4.425 -5.51597 -5.35087 
407 1 5.3914 5.55964 -4.92864 
318 1 4.80094 5.48047 -5.63922 
1394 2 -4.48959 -5.05614 -3.45293 
1312 2 -5.3217 -5.48513 -3.2397 
1285 2 -4.21124 -5.25188 -2.59287 
14 1 -3.36394 -5.72833 -3.8411 
1079 2 -3.6019 -4.53908 -3.89892 
473 1 -4.22823 5.88732 -3.81489 
255 1 -3.96238 5.59025 -2.97281 
1008 1 -2.29999 -5.41688 -4.03639 
805 1 -2.99389 -5.28978 -4.5152 
508 1 -2.15484 -4.8044 -4.70333 
247 1 -2.51766 -4.4898 -5.41163 
274 1 -1.53562 -4.92766 -4.04174 
453 1 -0.883879 -4.9134 -3.65688 
1151 2 -1.30733 -5.90883 -4.48211 
1029 2 -0.740116 5.92921 -3.80894 
1260 2 0.127215 -5.42401 -4.10385 
1338 2 0.818058 -5.55675 -3.18508 
1486 2 0.944389 -5.00438 -4.20162 
667 1 2.40445 -5.48269 -4.4918 
57 1 3.31824 -5.16895 -4.32028 
131 1 4.26383 -4.96024 -3.78787 
49 1 2.86077 -5.15569 -5.12327 
1604 2 -5.89308 -5.4543 -3.86606 
19 1 4.74681 -4.21814 -5.38451 
847 1 5.22086 -4.63143 -3.62685 
878 1 -5.2103 -3.94239 -4.02558 
496 1 5.36899 -4.22597 -4.33459 
1418 2 -4.4981 -4.64115 -4.38007 
798 1 -3.82713 -3.97975 -2.80543 
483 1 -4.11847 -3.67101 -3.60664 
1477 2 -3.04537 -4.0737 -4.32349 
1807 2 -2.67534 -4.53056 -3.65385 
1452 2 -2.10716 -4.0147 -4.00578 
1402 2 -2.11885 -4.38929 -2.79859 
902 1 -0.907962 -4.48081 -4.60962 
1280 2 -1.33911 -3.9543 -3.56528 
467 1 0.746492 -4.09234 -3.88795 
1370 2 -0.45179 -3.14781 -4.51582 
326 1 -0.111066 -4.48303 -3.74979 
413 1 0.951855 -3.66778 -4.63458 
782 1 1.289 -4.16005 -3.1038 
122 1 1.52489 -3.70324 -3.95401 
1737 2 2.31229 -4.29793 -4.95413 
1836 2 3.02915 -4.46657 -3.54134 
694 1 2.91127 -2.83508 -4.77639 
1678 2 2.16531 -4.64981 -4.01342 
1198 2 2.54067 -4.7636 -2.94472 
2010 2 3.68404 -3.98997 -3.85916 
1655 2 4.67364 -3.32923 -4.23986 
1844 2 3.66212 -4.42612 -3.08109 
339 1 -5.80837 -3.89078 -4.65225 
1767 2 4.38898 -3.92985 -3.36878 
1201 2 5.01513 -3.50557 -3.59808 
1657 2 5.45024 -3.13324 -4.47508 
1871 2 5.8498 -3.27426 -3.67445 
1817 2 5.90853 -3.4304 -2.92882 
524 1 -3.40424 -3.27937 -3.87528 
1911 2 -4.61564 -2.58239 -4.11631 
2007 2 -3.78356 -2.16657 -3.77211 
664 1 -3.18322 -2.76721 -4.55289 
236 1 -2.58515 -2.84733 -3.97581 
657 1 -1.79427 -2.63638 -4.29127 
573 1 -1.44874 -2.71283 -3.3932 
597 1 -1.13372 -2.08009 -4.76257 
1006 1 -0.860224 -2.40328 -4.0078 
1645 2 0.225308 -3.14328 -3.5942 
1083 2 1.29558 -2.43603 -4.43774 
1982 2 1.12447 -2.82184 -3.80287 
1676 2 1.98256 -2.45058 -3.68813 
136 1 1.86085 -3.28579 -4.68728 
277 1 3.32154 -2.89252 -4.12545 
1326 2 3.10738 -1.97097 -3.57806 
904 1 5.08525 -2.12178 -4.51812 
999 1 4.53644 -2.40531 -3.80975 
2032 2 5.34114 -2.81972 -5.29009 
784 1 5.3001 -2.35204 -3.34778 
66 1 5.80348 -2.18918 -3.98256 
291 1 -5.37929 -1.89885 -3.55552 
833 1 -4.76246 -1.15815 -5.02698 
161 1 -4.89994 -1.39783 -4.0416 
717 1 -4.16785 -1.04221 -4.1658 
848 1 -3.93076 -1.26897 -3.3702 
1097 2 -3.12355 -1.72032 -4.37074 
1271 2 -2.54277 -1.20253 -4.86062 
1682 2 -1.96453 -1.64715 -3.73334 
419 1 -2.70441 -0.93289 -2.95942 
1867 2 -1.78373 -1.30072 -4.44207 
1781 2 -1.12179 -1.53124 -3.31486 
367 1 0.0314631 -1.49063 -5.42269 
35 1 -0.90326 -1.60035 -5.49979 
1537 2 -0.954709 -1.12615 -4.11521 
1644 2 0.582595 -0.695659 -3.63703 
8 1 0.596603 -1.41623 -4.81744 
421 1 0.979654 -1.70434 -3.58923 
674 1 1.38998 -1.23464 -4.25456 
1259 2 2.42673 -1.96548 -4.09968 
427 1 1.78668 -1.56426 -2.99756 
640 1 2.13661 -1.0616 -3.69761 
1363 2 3.3396 -1.63313 -4.25067 
1030 2 4.27791 -1.64313 -3.01025 
2048 2 3.97221 -1.58285 -3.73868 
205 1 -5.55074 -1.62405 -4.58326 
1110 2 5.55667 -1.15568 -3.87977 
1163 2 4.75317 -1.25017 -4.05483 
1754 2 -5.36408 -0.321063 -4.6344 
1111 2 -4.01286 0.318803 -4.31011 
1346 2 -4.79146 0.295717 -4.97538 
278 1 -4.39058 0.861209 -3.12645 
1962 2 -4.64644 -0.151778 -3.84263 
1436 2 -2.63964 0.363831 -3.54888 
1876 2 -3.81084 0.0948789 -3.41007 
704 1 -3.23332 -0.9226 -3.64482 
37 1 -2.3251 -0.634186 -3.72633 
1761 2 -2.14394 0.269612 -2.86047 
234 1 -1.49727 -0.361704 -3.44208 
799 1 -0.798522 -0.244808 -2.73911 
898 1 -1.66512 -0.922557 -2.70271 
1296 2 -0.288462 -0.74544 -4.27272 
789 1 -0.915226 0.0801304 -3.76581 
517 1 0.286451 0.571337 -4.096 
80 1 1.14095 1.05217 -4.35269 
1456 2 1.35034 -0.345868 -3.92534 
1975 2 1.1639 0.185532 -4.83824 
1832 2 1.99249 -0.129174 -3.36331 
1412 2 2.67789 0.591086 -4.57802 
1777 2 1.91858 0.126298 -4.29392 
116 1 3.37219 -0.64584 -3.64494 
846 1 3.73021 -0.73901 -2.88504 
1673 2 2.72075 0.161042 -3.82513 
715 1 4.24983 -0.380531 -3.61772 
872 1 5.06073 0.00236751 -3.8455 
692 1 -5.91718 0.363782 -3.84431 
109 1 5.02108 -0.327428 -3.03568 
190 1 -4.292 1.19011 -4.06809 
915 1 -5.53767 0.842237 -4.56989 
1377 2 -5.70089 1.69173 -4.08251 
697 1 -3.86087 1.54998 -4.88988 
980 1 -3.75022 1.98451 -5.63578 
164 1 -3.46315 1.08242 -3.45083 
689 1 -3.32454 1.63974 -4.04328 
489 1 -2.50095 1.61586 -3.52676 
1834 2 -3.2973 0.321941 -4.14777 
1364 2 -1.07971 1.18928 -3.97107 
1550 2 -2.04899 0.81758 -3.93591 
842 1 0.285281 0.832268 -4.84376 
1386 2 -0.30711 1.44288 -3.93843 
1310 2 0.269103 1.86171 -4.6183 
760 1 2.90595 2.01174 -4.84207 
1838 2 1.09432 1.64391 -2.73915 
1021 1 2.17369 1.52467 -4.30885 
731 1 3.73849 1.76549 -3.24062 
2008 2 3.28522 0.611484 -3.99764 
1953 2 3.75537 0.604499 -3.31626 
232 1 4.1454 1.63501 -2.57266 
1497 2 5.48499 1.62618 -4.52963 
1068 2 5.0307 1.17066 -3.75271 
1858 2 -5.72873 1.29882 -3.2548 
1654 2 -5.11531 1.96067 -3.55606 
676 1 -4.64812 3.2493 -3.72492 
188 1 -5.4563 3.07455 -3.8506 
1877 2 -3.70619 2.32154 -3.34786 
1728 2 -4.45651 2.20863 -4.07628 
1142 2 -3.24328 2.81946 -4.14148 
903 1 -2.97234 2.05557 -4.75191 
1625 2 -2.32296 3.12476 -4.28375 
719 1 -2.1727 2.04681 -4.23307 
585 1 -0.850828 1.9292 -2.52962 
397 1 -1.56358 1.97156 -3.36876 
852 1 -1.17075 2.33085 -4.26651 
843 1 0.0828843 2.70903 -3.72074 
310 1 -0.311211 2.72636 -4.48301 
1683 2 0.767586 1.84353 -3.76776 
2020 2 1.55979 2.09111 -3.48331 
56 1 0.46477 3.09809 -4.53693 
1999 2 1.74994 2.38375 -4.30203 
1769 2 2.10011 2.76643 -4.81233 
1214 2 2.52488 2.66865 -3.99135 
1522 2 3.38011 2.88057 -3.70765 
2039 2 2.9943 3.31281 -4.7731 
381 1 4.62109 2.00909 -3.39869 
811 1 5.37237 2.14049 -3.01644 
1562 2 3.77842 3.3698 -4.313 
631 1 5.72695 2.60163 -3.61566 
702 1 4.96475 2.4195 -4.03353 
7 1 -5.25189 2.78603 -3.06314 
1971 2 -5.38615 4.03289 -3.39739 
1669 2 -4.87211 3.913 -2.56226 
92 1 -4.62427 3.71035 -4.58927 
446 1 -3.8412 3.68266 -3.90728 
250 1 -2.84216 4.02386 -3.98835 
989 1 -3.10955 3.76263 -3.24312 
1476 2 -0.834564 3.39223 -3.579 
772 1 -1.98384 4.10825 -3.82857 
1268 2 -1.66893 3.61658 -4.7568 
1689 2 -0.860579 3.6821 -4.42814 
1304 2 -0.0715199 3.8482 -4.03475 
1372 2 0.669159 4.13561 -3.94535 
709 1 1.50316 3.61405 -4.3793 
2040 2 1.44287 4.66376 -3.81092 
1093 2 2.22226 4.73627 -3.48785 
884 1 2.59077 3.89537 -3.91864 
256 1 3.22164 4.38722 -4.74799 
394 1 3.42545 4.30272 -3.87647 
1618 2 4.38522 3.75414 -4.89995 
653 1 4.08363 4.68338 -4.30408 
835 1 4.14367 4.1146 -3.38879 
443 1 4.66219 4.58101 -3.65326 
1073 2 5.61824 4.21355 -4.48292 
1439 2 4.95237 3.75837 -4.16129 
1636 2 5.55332 3.79708 -3.64477 
699 1 -5.81949 5.52777 -4.44244 
918 1 5.499 4.72774 -2.98917 
346 1 -5.01604 5.77689 -4.31995 
1575 2 -4.70522 4.62487 -3.90818 
1275 2 -4.33999 4.39804 -3.04001 
1038 2 -3.73895 4.95275 -4.27417 
993 1 -4.81859 5.40703 -3.47574 
1957 2 -2.83179 5.12392 -3.92084 
1335 2 -3.67536 4.71812 -3.46246 
340 1 -0.803507 4.55034 -3.60407 
1236 2 -2.3793 5.10518 -3.2892 
1329 2 -1.30615 5.45456 -3.36418 
568 1 -0.086241 5.04073 -3.81451 
628 1 0.387722 5.4805 -4.41057 
1668 2 1.42166 4.86006 -4.71516 
673 1 1.08547 -5.88311 -4.50503 
959 1 0.967045 5.44777 -3.6439 
575 1 1.77773 5.78829 -3.87637 
1847 2 2.74971 5.40956 -5.16832 
1955 2 2.44495 5.04347 -4.46669 
1691 2 3.11816 5.50752 -4.37351 
1704 2 4.27636 -5.88152 -4.11403 
1667 2 3.78066 -5.87376 -4.90533 
1714 2 3.8688 5.48021 -3.69515 
662 1 4.85892 5.04708 -4.54121 
579 1 5.35112 5.1576 -3.89104 
1425 2 5.12636 -5.77012 -3.78196 
1534 2 -4.94303 -5.5994 -2.5423 
1822 2 -3.85494 -5.692 -1.39398 
284 1 -5.77579 -4.39849 -3.53792 
864 1 -5.48498 -4.55068 -2.59596 
1197 2 -3.63583 -5.01343 -3.1423 
1404 2 -3.40275 -5.23484 -2.00299 
366 1 -4.63935 -4.31431 -2.39952 
1047 2 -2.95533 -4.67432 -2.95347 
229 1 -2.25035 -5.63482 -2.50117 
295 1 -2.71168 5.91566 -3.25672 
260 1 -1.7254 -5.32387 -3.27099 
934 1 -1.0142 -5.28611 -2.69714 
5 1 -0.250659 -4.93083 -2.88241 
1592 2 1.56687 -5.0716 -3.50107 
1082 2 1.6025 -5.2613 -2.68849 
1742 2 0.363349 5.49086 -1.53805 
1319 2 1.01342 -5.62118 -2.41033 
1563 2 2.63164 -5.1303 -2.18842 
180 1 2.82596 -5.63275 -3.6479 
67 1 3.03767 5.91854 -2.91453 
1013 1 4.56224 -5.24581 -2.9483 
955 1 3.72763 -5.39014 -3.37268 
1521 2 3.50446 -4.83526 -2.22189 
153 1 4.49341 -5.57637 -2.0151 
452 1 5.33343 -5.40322 -1.76052 
666 1 5.39542 -4.99546 -2.65311 
1400 2 -5.08843 -3.17782 -2.86522 
411 1 -4.74361 -4.12641 -3.24262 
1545 2 -4.91048 -3.4542 -1.87044 
246 1 -3.27737 -3.89986 -2.16136 
313 1 -3.07228 -3.53179 -3.07099 
599 1 -2.47638 -3.47665 -2.38107 
1106 2 -1.53816 -4.5509 -2.13738 
1878 2 -1.11233 -4.15358 -2.69384 
1896 2 -0.925382 -4.40749 -1.64282 
1848 2 -0.773742 -3.48667 -3.89665 
1580 2 -0.358581 -4.07001 -2.44824 
1263 2 0.401562 -3.58105 -2.40359 
547 1 2.56691 -3.26916 -4.05341 
107 1 0.475163 -4.6662 -3.03731 
321 1 1.62251 -4.29214 -2.37659 
403 1 3.07734 -3.40245 -3.246 
1001 1 2.12828 -3.74468 -3.40922 
1240 2 4.26015 -4.32887 -2.51664 
602 1 4.54555 -2.7175 -3.04135 
140 1 3.69497 -3.41576 -2.59771 
2002 2 5.07325 -3.7605 -2.74122 
1664 2 -5.11547 -3.00851 -3.63361 
636 1 -5.68775 -2.43501 -1.99375 
592 1 -4.98397 -2.24144 -2.49113 
275 1 -4.71395 -2.368 -1.51082 
1924 2 -4.36261 -2.69083 -3.21895 
1052 2 -3.49885 -2.59586 -2.80832 
388 1 -2.15664 -3.17926 -3.40726 
1086 2 -2.88141 -1.91414 -3.53527 
1505 2 -3.44966 -2.83775 -1.92485 
1391 2 -2.71421 -2.43187 -2.6003 
753 1 -1.70575 -3.22025 -2.77919 
526 1 -0.701034 -2.67026 -2.87843 
1449 2 -2.58986 -2.43742 -1.61425 
830 1 -0.387184 -1.81722 -4.57674 
1457 2 -0.292288 -3.51338 -3.18289 
211 1 0.237948 -2.62151 -2.42747 
998 1 -0.233723 -2.22477 -3.53197 
1401 2 0.897552 -3.35604 -3.00407 
581 1 1.26814 -2.10882 -2.6916 
1991 2 1.31079 -3.43409 -2.08384 
1533 2 1.71546 -2.91143 -2.99029 
1123 2 2.61493 -2.5724 -2.99819 
1066 2 2.35223 -2.94924 -2.158 
1947 2 3.25519 -2.46089 -2.13991 
471 1 3.77048 -2.89529 -3.40887 
1167 2 5.10567 -1.57892 -2.2217 
1973 2 3.57925 -2.04102 -2.84012 
968 1 -5.80599 -2.327 -2.8479 
296 1 5.30263 -2.58774 -2.45799 
2035 2 -4.59661 -0.548754 -3.15334 
1826 2 -5.49749 -0.669838 -3.74845 
1792 2 -5.13362 -1.15766 -2.43902 
767 1 -4.77566 -1.64267 -3.18908 
58 1 -4.17117 -1.87327 -2.25846 
917 1 -3.38063 -1.42885 -2.60187 
449 1 -3.04336 -1.50859 -1.80688 
1635 2 -1.9321 -1.95739 -2.88045 
1808 2 -1.0005 -1.8298 -2.42183 
117 1 -2.34571 -1.21784 -2.30148 
59 1 -1.05949 -0.750078 -2.03713 
1870 2 -0.42702 -1.06344 -3.31556 
1916 2 0.522148 -0.929138 -2.78117 
11 1 0.230487 -1.68249 -4.0925 
1517 2 1.36254 -0.595766 -2.86161 
287 1 0.549939 -2.15776 -3.1277 
2046 2 0.818475 -1.18801 -1.95668 
1360 2 1.75082 -0.862868 -2.09296 
106 1 2.40016 -1.76147 -2.46888 
125 1 2.79823 -1.0938 -3.12711 
199 1 2.65416 -1.8255 -1.5485 
691 1 3.14683 -1.26045 -2.15625 
1641 2 -5.86882 -1.34063 -2.15111 
1350 2 5.034 -1.40421 -3.11003 
1946 2 -5.8606 -1.12498 -3.00841 
230 1 -5.01812 0.773744 -3.80457 
32 1 -5.0641 0.378464 -2.8912 
1589 2 -3.98616 -0.406433 -2.57257 
1098 2 -3.17346 -0.106981 -2.78937 
1206 2 -2.17342 -0.124013 -2.13946 
630 1 0.0833096 -0.0768673 -2.58774 
2043 2 -1.5454 0.0324984 -1.72472 
499 1 -0.192029 0.0773502 -3.41731 
1297 2 -0.364641 0.751307 -2.12158 
160 1 0.475331 -0.187053 -1.72873 
963 1 0.823036 0.310904 -2.61875 
625 1 1.69884 1.11339 -3.76315 
615 1 0.860795 0.495743 -3.5599 
464 1 1.52376 0.729434 -2.92234 
2027 2 2.32698 -0.422335 -2.49647 
1502 2 2.83353 0.151433 -3.00379 
241 1 4.57974 -0.535064 -2.50815 
1696 2 2.93882 -0.0268544 -2.13964 
297 1 -5.77372 -0.0616651 -3.00151 
518 1 5.57501 -0.443042 -2.22518 
2030 2 4.58718 0.312774 -2.23519 
1986 2 -5.09493 1.60433 -2.68597 
1724 2 -4.87738 1.36494 -1.78613 
1861 2 5.63293 0.802853 -2.6562 
900 1 -3.63061 0.869503 -2.52271 
1132 2 -4.32158 1.82272 -2.85137 
1512 2 -3.43327 2.00425 -2.36982 
613 1 -2.82816 1.10955 -2.84028 
189 1 -2.48191 1.03786 -2.06246 
1149 2 -1.5273 0.710092 -3.23816 
2022 2 -1.28133 0.531804 -2.353 
686 1 -1.94065 1.65718 -2.71925 
134 1 -0.0124782 2.26042 -2.50367 
259 1 -1.63259 1.34108 -2.09386 
1104 2 -0.597498 1.04942 -3.01329 
1187 2 0.279246 1.29068 -3.13931 
301 1 0.559615 2.67661 -3.11545 
1340 2 2.00866 2.13056 -2.70175 
1642 2 2.57346 2.39936 -3.32375 
594 1 2.84589 1.48173 -3.84556 
886 1 2.07303 0.669852 -2.16856 
50 1 2.46515 1.08683 -3.15153 
874 1 3.21479 1.14989 -2.59269 
104 1 3.81656 1.15501 -2.00594 
944 1 4.97804 1.88569 -2.43791 
1952 2 4.64129 0.737631 -3.10497 
194 1 -5.76438 2.34334 -2.47244 
69 1 -4.67698 2.81213 -2.54614 
926 1 -5.11999 2.34601 -1.86066 
516 1 -5.80731 1.95347 -1.24997 
1485 2 -2.9922 2.46783 -2.81864 
369 1 -4.11846 3.10726 -2.99366 
966 1 -3.96773 2.75628 -1.89246 
1794 2 -2.61005 2.85444 -3.48103 
1938 2 -2.50026 2.41967 -2.17169 
1415 2 -1.9214 2.87988 -2.98949 
1607 2 -1.69066 3.09399 -3.76487 
1756 2 -0.558964 3.26424 -2.72071 
208 1 -0.607122 2.36625 -3.2367 
76 1 0.980945 3.02728 -3.76332 
885 1 1.98621 3.51868 -3.58528 
478 1 2.28355 3.41756 -2.77751 
896 1 3.17678 3.43575 -2.26355 
1461 2 3.1512 2.52287 -2.76118 
510 1 3.66635 3.39954 -1.5378 
1330 2 4.10419 2.85722 -2.99001 
1977 2 4.35737 3.17492 -3.80384 
1866 2 3.83378 2.4429 -2.18563 
761 1 5.58233 1.94666 -1.97985 
1026 2 4.71271 2.90768 -2.48623 
1825 2 5.4333 3.17378 -2.13833 
1333 2 -5.83689 3.54199 -2.77857 
1399 2 -5.48133 3.08916 -1.17007 
1278 2 -5.52565 3.41147 -2.05023 
1419 2 -4.09177 3.98206 -1.92015 
1105 2 -4.6326 3.5359 -1.47721 
276 1 -3.45965 3.272 -2.58564 
26 1 -2.74208 3.43223 -2.12367 
520 1 -2.28858 3.26813 -1.28958 
733 1 -2.23335 3.72927 -2.79126 
612 1 -1.18528 4.226 -2.54007 
720 1 -1.81817 3.75268 -2.01704 
86 1 -0.357577 4.55263 -2.8578 
1616 2 0.0112494 3.65441 -3.23011 
1183 2 0.911281 3.9081 -3.09772 
836 1 0.169728 4.47273 -2.18445 
1071 2 1.55898 4.26319 -3.09635 
1042 2 2.76726 4.62011 -2.72747 
34 1 3.15279 3.79212 -3.21463 
1559 2 3.44978 4.60891 -2.15035 
448 1 3.83408 3.76247 -2.55697 
552 1 4.35807 3.80974 -1.83238 
1994 2 5.18951 3.26299 -3.03437 
775 1 4.82493 4.16679 -2.77423 
432 1 5.22533 3.94896 -1.45482 
166 1 -5.52546 4.91403 -2.69134 
370 1 -5.69089 5.13999 -3.49389 
589 1 -3.68779 5.30979 -2.02725 
342 1 -3.21965 5.74209 -2.57712 
1287 2 -3.696 4.40049 -2.46043 
1325 2 -2.86446 4.65964 -2.75624 
1601 2 -2.28923 4.72502 -2.15311 
1339 2 -1.72567 5.19407 -2.73799 
1543 2 -0.360168 5.40657 -2.12506 
1571 2 -0.801632 5.55917 -2.81428 
1818 2 -0.0972455 5.92968 -3.15315 
564 1 0.421444 5.08093 -3.16751 
652 1 0.762138 4.9354 -2.46975 
442 1 1.38639 5.30435 -2.80211 
1593 2 3.03366 5.13746 -3.65855 
487 1 2.11657 5.82103 -3.03325 
1489 2 4.53825 5.45328 -3.1897 
1612 2 3.69748 4.88635 -2.91304 
1090 2 4.4582 5.11235 -2.38525 
262 1 5.38318 4.44376 -2.15268 
1773 2 5.69319 -5.82192 -3.04028 
2000 2 5.14291 5.50656 -2.48174 
280 1 -5.71202 -4.96718 -1.97858 
142 1 -4.95863 -5.11789 -0.900538 
182 1 -4.81333 -4.8259 -1.61469 
1454 2 -2.87906 -5.14128 -1.46036 
724 1 -4.1584 -4.73967 -0.95925 
1815 2 -3.32644 -5.81847 -0.716174 
1783 2 -2.59283 -4.74001 -2.29395 
1802 2 -2.35095 -5.32579 -0.774957 
337 1 -0.582211 -5.43742 -1.95197 
1613 2 -1.10831 -4.86166 -1.08084 
147 1 0.0647998 -5.53847 -1.20432 
328 1 0.106005 -5.02752 -1.95568 
661 1 0.771579 -5.05592 -1.03296 
20 1 1.4509 -4.82443 -1.56046 
1081 2 0.573722 5.33972 -0.845423 
1887 2 1.97641 -5.59076 -1.85761 
1928 2 1.13198 5.89356 -1.5463 
2019 2 2.4721 -5.53492 -1.19819 
1194 2 3.99446 -4.99017 -0.918119 
1859 2 3.36819 -5.1126 -1.4023 
422 1 3.85791 -5.89015 -2.3864 
2017 2 4.90555 -4.67247 -0.996415 
1765 2 4.27618 -4.54701 -1.77603 
456 1 4.95908 -5.77586 -0.998428 
988 1 -5.86212 -5.36911 -1.19908 
1217 2 -5.27154 -3.8827 -1.22643 
504 1 -3.98062 -4.39454 -1.76525 
1387 2 -4.53919 -3.73946 -0.790931 
1948 2 -3.9208 -3.32624 -1.31041 
71 1 -1.86752 -3.48138 -1.7927 
21 1 -2.78195 -4.05127 -1.50167 
1843 2 -1.91262 -4.78745 -1.48702 
844 1 -1.98424 -3.89262 -0.921079 
986 1 -1.17231 -3.54672 -1.27274 
1246 2 -0.395703 -4.53257 -0.648852 
1753 2 0.0647392 -4.0122 -1.58197 
938 1 0.890258 -4.56892 -2.13251 
1894 2 1.04831 -3.76708 -1.35883 
914 1 2.28898 -4.29219 -1.67498 
1658 2 1.27046 -3.9428 -0.453491 
1738 2 1.87658 -3.28661 -1.53255 
550 1 2.48577 -4.52136 -0.86048 
639 1 2.6481 -3.82127 -2.54485 
754 1 3.69228 -3.53147 -1.84628 
928 1 4.03311 -3.80033 -1.0568 
137 1 3.09805 -4.02417 -1.49585 
1131 2 -5.7601 -3.64672 -2.08802 
562 1 4.56389 -3.07287 -2.08241 
1530 2 5.11437 -4.16717 -2.08065 
1471 2 5.75741 -4.16495 -1.26349 
311 1 4.76531 -3.49132 -1.34038 
1487 2 5.66061 -4.49685 -0.346887 
764 1 -5.59976 -3.28089 -0.0410971 
734 1 -5.44844 -2.89937 -1.15609 
1289 2 -4.1879 -3.15695 -2.32154 
219 1 -4.22886 -2.34788 -0.990502 
1442 2 -2.90507 -3.07644 -1.01667 
1216 2 -2.20583 -2.95854 -0.513999 
1113 2 -1.7967 -2.4908 -1.35261 
1069 2 -1.63719 -2.3011 -2.15412 
677 1 -1.06745 -3.08508 -2.20397 
703 1 -0.371875 -3.19332 -1.02021 
566 1 -0.375333 -2.87865 -1.82506 
215 1 1.887 -2.31187 -0.954997 
705 1 0.863924 -2.38695 -1.89704 
839 1 2.61524 -2.13309 -0.606866 
1923 2 2.66846 -3.04138 -1.29586 
1279 2 4.19784 -2.09147 -2.0754 
1698 2 3.98265 -2.51991 -1.25509 
1028 2 4.70495 -2.58005 -0.784673 
213 1 5.43232 -3.01424 -1.60935 
1978 2 5.02528 -2.17784 -1.44424 
1587 2 -5.24093 -1.38436 -1.57163 
1990 2 5.80522 -1.72373 -1.3103 
1169 2 -5.54498 -1.98147 -0.550636 
1972 2 -4.57306 -0.925832 -2.04241 
1940 2 -4.09445 -0.870243 -1.23287 
1025 2 -3.70352 -0.506508 -1.83059 
285 1 -3.74396 -1.92439 -1.5211 
722 1 -2.57486 -1.59038 -1.05091 
548 1 -1.80468 -1.27501 -1.60628 
948 1 -1.67577 -1.49558 -0.8947 
1174 2 -3.74737 -1.25569 -0.557168 
447 1 -0.369495 -0.50079 -1.90262 
683 1 -0.942061 -1.03316 -1.13363 
1819 2 -0.152619 -1.56261 -2.78876 
1057 2 -0.10126 -1.55138 -1.79599 
1796 2 -0.773704 -2.01595 -1.49195 
1897 2 1.34079 -1.31999 -1.2499 
1831 2 0.52872 -1.62861 -1.06311 
377 1 1.84239 -1.97908 -1.86389 
1568 2 2.28117 -0.911157 -1.36823 
1361 2 2.51686 -1.03492 -0.532793 
334 1 3.921 -1.07299 -2.03522 
1758 2 3.9573 -0.150024 -0.840817 
626 1 3.56197 -1.56476 -1.25308 
867 1 4.39651 -1.17108 -1.31312 
279 1 5.66671 -0.820617 -0.856324 
168 1 5.13172 -0.767024 -1.5478 
958 1 -5.12101 -0.48113 -0.720425 
654 1 -5.17722 -0.086802 -2.14039 
876 1 -5.77812 -0.444462 -1.40948 
1508 2 -5.55091 0.781421 -1.35452 
824 1 -4.40828 0.454176 -2.29748 
912 1 -4.83854 -0.00219455 -1.32154 
921 1 -4.03491 0.291419 -1.29715 
1432 2 -2.94983 -0.451463 -1.90576 
1128 2 -3.06085 -0.657702 -1.06327 
1507 2 -2.25988 -0.351191 -1.29326 
307 1 -3.02201 0.425676 -0.963722 
1323 2 -1.31072 -0.160403 -0.617738 
1067 2 -0.978318 0.205526 -1.33199 
601 1 0.485067 -0.655641 -0.60467 
1893 2 0.297162 1.30622 -2.31269 
1213 2 -0.0441462 0.526395 -1.23753 
776 1 1.39068 0.0226576 -1.98512 
121 1 1.75747 0.114652 -1.25622 
90 1 2.82748 0.919172 -1.7215 
1314 2 3.03127 -0.494104 -1.45074 
1320 2 3.74367 0.268525 -2.48684 
1680 2 3.78418 -0.0134796 -1.57331 
1564 2 4.70614 0.0589559 -1.29672 
1220 2 5.47192 0.472763 -1.77471 
1720 2 -4.06276 1.58038 -1.8795 
1803 2 -5.71685 1.05375 -2.18408 
351 1 -5.91648 1.46345 -0.535645 
1282 2 -3.80573 1.43568 -1.03448 
1520 2 -3.08585 1.64767 -1.51924 
94 1 -3.30025 0.617556 -1.73948 
1776 2 -2.21856 1.925 -1.32706 
192 1 -2.05747 0.70373 -1.22227 
919 1 -1.1166 1.16723 -1.26828 
614 1 -1.17221 0.958574 -0.441423 
115 1 -0.633004 1.64085 -1.6792 
1944 2 1.38762 1.35681 -1.90323 
608 1 0.218419 1.96677 -1.59814 
910 1 0.842021 2.63643 -2.33031 
1860 2 0.727598 0.9264 -1.52514 
1158 2 2.13904 1.67489 -1.81527 
1726 2 1.8513 1.33738 -1.01505 
1681 2 2.61318 1.71032 -1.14418 
1967 2 2.99161 2.07659 -2.08038 
1874 2 3.58372 1.81195 -1.24877 
783 1 3.45841 0.840406 -1.27858 
492 1 4.43876 1.01399 -1.0372 
858 1 3.88659 0.72826 -0.348993 
110 1 5.32504 1.40501 -1.25883 
1017 1 4.69997 1.25697 -1.76029 
16 1 5.16722 1.12941 -0.373049 
1527 2 5.33512 2.66945 -1.34618 
1685 2 -4.98891 2.88252 -0.403477 
1003 1 -5.07531 1.64813 -0.438851 
298 1 -4.50274 2.19534 -1.00954 
879 1 -3.70013 2.37949 -0.865926 
781 1 -4.09299 2.06115 0.00250115 
1839 2 -1.72067 2.57352 -1.92814 
460 1 -2.75717 2.62782 -0.853373 
323 1 -3.19264 2.84985 -1.46051 
1959 2 -1.16274 2.96016 -2.34496 
2021 2 -0.466503 2.86207 -1.77174 
1023 1 -1.51658 3.30634 -0.694954 
1092 2 -1.1345 2.51616 -1.32281 
1968 2 0.334213 3.22579 -1.4164 
240 1 1.48364 3.05265 -2.88448 
1679 2 0.119467 3.32564 -2.26627 
828 1 2.5215 2.97555 -1.64287 
937 1 1.78689 2.87749 -2.04239 
183 1 3.18359 2.83674 -1.04547 
143 1 1.68884 2.43388 -1.1818 
1786 2 4.1064 1.7797 -0.314477 
379 1 3.93784 2.98304 -0.543587 
1328 2 4.5583 2.58126 -1.69581 
1686 2 4.80049 1.83906 0.172941 
1368 2 4.38127 2.12642 -1.08925 
355 1 -5.55777 4.45737 -1.78345 
961 1 -4.67652 4.86009 -1.69199 
1056 2 -5.92659 2.64598 -0.478032 
641 1 -4.23738 4.36302 -0.371457 
1992 2 -3.07951 4.27156 -1.68831 
1853 2 -3.70158 3.85034 -1.12849 
1348 2 -2.183 4.41555 -1.29651 
1155 2 -2.8097 3.78234 -0.604201 
418 1 -1.11132 3.56318 -1.41108 
165 1 -0.57109 3.59239 -0.620556 
111 1 -0.536415 4.12233 -1.825 
1646 2 -1.3828 4.62924 -1.12439 
361 1 -0.027088 4.07428 -1.15683 
1499 2 1.8474 4.06659 -2.31256 
1981 2 0.931982 3.80192 -2.28793 
1854 2 2.14379 3.81565 -1.17825 
905 1 2.17407 5.16735 -1.27737 
736 1 0.688739 4.50562 -1.36742 
1764 2 2.65316 4.21881 -1.79439 
742 1 4.75714 3.13714 0.0753689 
181 1 4.39804 3.45481 -1.00267 
1178 2 4.24938 4.82645 -1.48981 
1868 2 3.38328 4.32219 -1.33075 
582 1 -5.82209 4.08665 -0.965035 
974 1 -4.95339 4.40575 -0.949321 
650 1 5.06821 3.49134 -0.649754 
580 1 -5.12811 3.99134 -0.265974 
1362 2 -5.1407 5.76063 -1.42533 
1122 2 -4.47721 -5.78712 -1.93008 
952 1 -4.68977 5.1621 -2.59667 
1351 2 -4.3218 5.8024 -0.633326 