ITEM: TIMESTEP
15000
ITEM: NUMBER OF ATOMS
2048
ITEM: BOX BOUNDS pp pp pp
-5.9387684073679337e+00 5.9387684073679337e+00
-5.9387684073679337e+00 5.9387684073679337e+00
-5.9387684073679337e+00 5.9387684073679337e+00
ITEM: ATOMS id type x y z 
1633 2 -5.23664 -4.80025 -4.98471 
473 1 -4.88671 -5.5996 -5.52264 
333 1 -3.63321 -4.90482 -5.86752 
14 1 -4.02478 -5.37512 -5.37497 
91 1 -2.49573 -4.62553 -5.29298 
805 1 -3.16526 -5.11118 -4.98749 
416 1 -1.98253 -4.91002 -4.72828 
1958 2 -1.58758 -5.65345 -5.15507 
2029 2 -1.07147 -5.17972 -5.73499 
1035 2 -0.146641 -4.89231 -5.56244 
1429 2 0.374292 -4.93788 -4.81596 
628 1 1.82266 -5.18339 5.67839 
648 1 2.55792 -5.16649 -5.56906 
49 1 3.36079 -4.7125 5.86512 
1704 2 3.80037 -5.71297 -5.51366 
180 1 3.63595 -4.71501 -5.20568 
442 1 2.80492 -5.27723 -4.72929 
1192 2 4.72047 -5.34092 -5.37063 
1799 2 5.6611 -5.09149 -5.31953 
1931 2 5.05981 -4.92795 5.76456 
1358 2 5.26224 -5.40317 -4.54747 
511 1 -5.00337 -3.50671 -4.69497 
353 1 -4.02568 -3.29713 -4.94839 
1663 2 -4.51336 -4.6276 -4.5745 
273 1 -3.90236 -3.48439 -4.03113 
1103 2 -4.63785 -4.30376 -5.59203 
1261 2 -4.08528 -4.85698 -3.64596 
1602 2 -3.70846 -4.51726 -4.28606 
1711 2 -2.83199 -3.50548 -5.33493 
2009 2 -1.95022 -3.53054 -4.87806 
227 1 -0.796379 -4.48174 -4.73677 
924 1 -1.48905 -4.32683 -5.39131 
1746 2 0.268416 -4.51003 5.69195 
819 1 -0.308506 -3.83753 -5.29209 
413 1 0.126804 -4.03496 -4.46567 
202 1 0.236077 -3.49126 5.93992 
1709 2 0.966577 -4.64884 -5.37599 
136 1 0.648871 -3.75012 -5.14036 
1678 2 2.16963 -4.20619 -5.10001 
547 1 1.67741 -3.51677 -4.56646 
1737 2 3.00422 -4.03227 -5.0915 
1705 2 2.46661 -3.76689 -5.79737 
57 1 4.46627 -4.32409 -5.31788 
1232 2 3.9144 -3.68316 -4.84363 
19 1 4.0955 -4.13332 5.74828 
1483 2 3.39589 -3.41466 -5.66957 
223 1 -5.70793 -3.98993 -4.40866 
496 1 5.65474 -3.98952 -5.20158 
675 1 -5.49053 -3.69619 -5.42356 
1588 2 -4.68257 -1.97003 -5.78752 
1937 2 -5.15458 -2.32234 -5.09793 
1243 2 -4.28704 -2.01558 -4.89384 
218 1 -3.59737 -2.75076 -5.37387 
524 1 -3.08024 -2.94376 -4.42713 
664 1 -2.79582 -2.43465 -5.24254 
196 1 -2.02578 -2.42271 -4.65981 
151 1 -1.98199 -2.0215 -5.39223 
1379 2 -1.69214 -3.04274 -5.55837 
35 1 -0.997141 -2.0209 -4.80593 
1370 2 -0.798369 -3.0169 -5.20143 
1255 2 -0.128207 -2.44471 -5.62192 
1909 2 0.662966 -2.3476 -5.39291 
1820 2 1.37609 -1.9268 -5.71904 
1190 2 1.6015 -1.96794 -4.77883 
1 1 1.27718 -3.28202 -5.51304 
939 1 2.13064 -2.95264 -5.23602 
277 1 3.03096 -2.68393 -4.92493 
694 1 2.68857 -2.58515 -5.73175 
1129 2 4.62261 -3.17002 -4.99677 
485 1 3.69173 -2.18894 -5.65199 
904 1 4.499 -2.06337 -5.09366 
1475 2 5.9794 -2.64248 -5.51168 
1465 2 5.42693 -2.91274 -4.89186 
205 1 -4.58175 -1.07198 -4.60725 
771 1 -4.95232 -0.981237 -5.44916 
833 1 -3.96507 -0.623963 -5.07577 
1745 2 -3.62828 -1.54675 -5.54533 
1341 2 -4.29909 -1.40806 5.74136 
543 1 -4.08894 -0.438715 -5.84282 
1733 2 -2.84508 -1.13209 -5.81858 
1809 2 -1.68225 -0.955236 -5.44356 
1345 2 -1.13126 -1.03881 -4.66545 
595 1 -1.18688 -1.7715 -5.69574 
830 1 -0.136569 -1.65473 -4.97413 
8 1 0.561325 -1.54276 -4.62156 
578 1 0.597249 -1.23789 -5.46491 
768 1 1.60759 -1.47222 -3.97116 
31 1 2.06888 -0.556254 -5.37258 
1515 2 2.16754 -1.63507 5.95638 
788 1 1.22452 -1.03249 -4.5437 
1964 2 2.2621 -1.73773 -5.20394 
1590 2 2.8231 -1.27065 -5.75857 
1775 2 3.68582 -1.04573 -5.37536 
475 1 4.04552 -1.69719 5.75323 
609 1 4.93011 -1.49359 5.83852 
1332 2 4.80836 -0.6984 -5.09255 
308 1 5.71764 -1.47929 -5.56825 
1498 2 -4.62092 0.327176 -5.51422 
1634 2 -5.46683 -0.540845 -3.91434 
1615 2 -5.53292 0.0527377 -5.12094 
2028 2 -4.02302 0.760964 -5.82654 
1962 2 -3.22929 0.778934 -5.29021 
505 1 -3.16431 -0.370043 -5.23877 
386 1 -2.76246 -0.0155306 5.96162 
451 1 -2.24051 -0.0295162 -5.2637 
374 1 -2.0905 0.567661 5.55348 
827 1 -1.26652 0.417616 -5.51813 
1572 2 -0.324956 -0.605912 -4.5372 
1975 2 -0.825638 -0.570284 -5.28578 
1223 2 0.721989 -0.187257 -4.76072 
1963 2 0.0656109 -0.51121 -5.12797 
1180 2 2.09623 0.354664 -4.67119 
1777 2 1.52231 -0.231412 -4.29947 
42 1 1.44333 -0.919491 -5.42366 
1852 2 1.39326 0.186209 -5.28786 
195 1 3.62243 0.403131 5.65169 
138 1 2.81173 -0.149899 -5.79943 
1785 2 2.96231 0.825671 -4.51355 
831 1 2.71097 0.303229 5.29765 
1224 2 4.45301 -0.65166 -5.79014 
758 1 3.64824 -0.0479316 -5.54366 
1494 2 5.57327 -0.394128 -5.70078 
60 1 4.48459 0.665153 5.86391 
656 1 -5.25471 1.11004 -4.90911 
915 1 5.91403 1.07049 -5.36765 
148 1 -5.41646 1.45139 -5.90728 
752 1 -4.73833 1.36413 -5.4264 
1343 2 -2.99946 1.22173 5.78733 
190 1 -3.25132 1.78038 -5.08283 
1256 2 -2.30699 1.13298 -5.39851 
1736 2 -2.58784 0.79405 -4.65126 
1058 2 -3.47374 1.38977 5.06734 
689 1 -2.90915 1.81623 -4.28855 
1050 2 -1.59183 1.36671 -5.09915 
1054 2 -0.625187 1.85676 -5.36383 
212 1 -0.580279 0.900972 -5.77368 
842 1 0.347476 1.0483 -5.26784 
1364 2 -0.153978 1.82854 -4.57723 
156 1 1.06006 1.65938 -5.7343 
551 1 1.14358 1.12077 -4.84272 
380 1 1.8602 1.54334 -5.22194 
760 1 1.91843 1.43508 -4.41867 
1882 2 2.54453 0.7772 -5.39998 
1845 2 3.08956 1.28582 5.90409 
1226 2 3.68854 1.78875 5.31923 
1497 2 5.04551 2.1059 -5.81953 
420 1 5.55191 1.08939 5.78578 
1431 2 5.59291 2.51485 5.67295 
1068 2 4.8526 1.58466 -4.73894 
1403 2 5.54716 1.9882 -5.25828 
1716 2 -4.53504 2.68036 -5.24056 
1810 2 -5.87185 1.89868 -4.4993 
1620 2 -3.89303 3.16118 -5.77853 
1175 2 -3.75446 2.76535 -5.00747 
697 1 -3.99493 1.83465 -5.61111 
1482 2 -4.52388 2.2112 -4.20481 
820 1 -2.89269 2.2718 -5.70483 
982 1 -2.3275 2.11191 -4.96899 
1625 2 -2.7715 3.13127 -4.86806 
852 1 -1.31655 2.77973 -5.76146 
310 1 -1.3956 2.54535 -4.96308 
1884 2 0.377446 2.27902 -5.30393 
561 1 -0.60696 2.94598 -5.04855 
1653 2 0.740097 2.11148 -4.34969 
1506 2 0.790632 2.86269 -5.75393 
895 1 2.72673 1.91129 -4.98701 
1011 1 3.5004 2.01744 -4.60253 
1628 2 2.33311 2.79391 -4.62653 
621 1 4.31087 2.36044 -4.28024 
574 1 3.711 2.42717 -5.40119 
396 1 4.52661 2.72796 -5.18833 
178 1 5.20455 3.30526 -5.71598 
204 1 5.68484 3.10739 -4.90403 
923 1 -4.8963 3.54043 -4.89246 
644 1 -5.59737 3.50322 -5.361 
45 1 -4.17317 4.10301 -5.40559 
92 1 -3.54079 3.88465 -4.87859 
687 1 -2.9665 4.42241 -5.37922 
1824 2 -2.16105 3.65734 -5.52809 
1869 2 -2.98945 3.55755 -5.79489 
632 1 -2.35602 4.42403 -4.75786 
1336 2 -1.366 4.18315 -5.64703 
1161 2 -1.05316 3.99996 -4.83749 
1268 2 -1.87581 3.50138 -4.76352 
1145 2 -0.450786 4.67724 -5.94674 
593 1 -0.501501 3.44249 -5.73434 
1354 2 -0.347202 4.41531 -5.00388 
56 1 0.371343 3.57523 -5.12876 
709 1 1.4143 3.81036 -5.11717 
815 1 -0.144817 3.86216 5.55738 
1979 2 2.74261 3.18963 -5.40214 
716 1 0.669785 3.90382 -5.81044 
1274 2 3.61913 3.35374 -4.92786 
884 1 2.48665 4.21377 -5.27129 
1342 2 3.32656 3.61391 -5.82962 
1618 2 4.28277 3.87666 -4.99632 
1779 2 4.96559 4.23584 -5.33786 
1073 2 5.45867 4.18028 -4.40154 
1640 2 -5.85196 4.43662 -4.96151 
412 1 -5.39424 5.69628 -4.67048 
1088 2 -5.17541 4.91004 -5.32507 
1048 2 -5.05393 4.52533 -4.47933 
1353 2 -3.51486 5.33222 -5.02651 
1365 2 -2.86198 5.81333 -5.39017 
1038 2 -2.87221 5.25386 -4.5719 
1526 2 -2.18229 5.70483 -4.8086 
638 1 -2.76671 4.93416 5.58578 
221 1 -2.16558 5.0157 -5.6174 
87 1 -0.713803 5.33044 -4.77164 
428 1 -1.36897 5.4187 -5.81889 
1306 2 0.388968 5.19052 5.663 
528 1 -0.303988 5.79482 -5.52986 
495 1 1.33737 -5.62983 -5.51803 
1033 2 1.31401 4.7182 -4.73843 
1093 2 1.204 5.13151 -5.68781 
2040 2 0.539644 4.87239 -5.33603 
777 1 3.43822 4.75647 -5.39869 
1955 2 1.95629 5.19359 -5.18049 
1691 2 3.17767 5.6624 -5.11162 
946 1 4.52955 5.18151 -5.11322 
407 1 4.02913 5.12946 -5.84874 
435 1 5.89311 5.88583 -5.46151 
825 1 5.61128 5.47454 -4.70045 
699 1 5.01297 5.53353 -5.62675 
1849 2 -5.76056 -5.15256 -4.51026 
2016 2 -5.06371 -5.09713 -3.91155 
1418 2 -5.28752 -5.52132 -3.26491 
1312 2 -3.91822 -5.15936 -2.79033 
1394 2 -4.55365 -5.32252 -3.30853 
508 1 -3.64632 -5.69495 -4.36083 
247 1 -2.61671 -5.33188 -4.358 
274 1 -3.06397 -5.71695 -3.68719 
1291 2 -0.37293 -5.30782 -4.72443 
855 1 -1.35606 -4.64108 -4.07174 
453 1 -1.84884 -5.26581 -3.63305 
902 1 -0.591062 -4.91341 -3.20872 
1334 2 0.231456 -5.34026 -3.95228 
1260 2 0.970343 -5.06 -4.33025 
1486 2 1.5805 -4.74032 -4.72852 
575 1 1.81847 -5.80647 -4.878 
1887 2 1.87258 -4.84182 -3.89978 
425 1 2.27247 -5.78721 -4.11779 
955 1 3.16901 -5.54006 -3.72805 
667 1 3.72529 -5.12848 -4.33119 
131 1 4.5532 -4.64572 -4.45253 
847 1 3.79005 -5.58989 -3.11125 
1773 2 5.77946 -5.62467 -3.71816 
1272 2 4.6432 5.88395 -3.94372 
339 1 5.29583 -4.66489 -3.69324 
373 1 -5.82531 -4.22969 -3.68186 
991 1 -4.94664 -3.90566 -3.8566 
280 1 -5.07346 -4.27928 -3.10645 
878 1 -4.64839 -4.62341 -2.22921 
1548 2 -2.81981 -4.41011 -3.92403 
483 1 -4.19331 -3.87502 -3.34091 
313 1 -3.12077 -3.2548 -3.65125 
1231 2 -2.9434 -3.91174 -4.60573 
1079 2 -2.16039 -4.34173 -3.29039 
1477 2 -2.03981 -3.89752 -4.09242 
1581 2 -1.25879 -3.42025 -4.31504 
467 1 -0.517024 -4.32655 -3.96451 
782 1 0.236998 -4.38133 -3.54045 
1645 2 -0.586551 -3.22313 -3.9495 
122 1 0.982293 -3.86552 -4.17905 
1001 1 1.96735 -3.70216 -3.75765 
1592 2 2.51799 -4.4479 -4.2852 
1836 2 3.51004 -4.10168 -4.13424 
1198 2 2.92421 -4.5782 -3.50554 
639 1 3.34991 -3.12322 -4.08715 
1902 2 4.47391 -3.72632 -4.02107 
1844 2 4.01832 -4.21344 -3.34224 
809 1 5.21739 -4.20884 -4.62884 
1655 2 5.78543 -3.12478 -3.64546 
1657 2 -5.7233 -2.81171 -4.47306 
1664 2 -4.71594 -2.52673 -4.37475 
1871 2 -5.25786 -2.84815 -3.70311 
1924 2 -4.3512 -2.77646 -3.48662 
1911 2 -3.67049 -2.12857 -4.0992 
2007 2 -3.66721 -2.61419 -3.07874 
236 1 -2.38632 -2.83237 -3.89436 
599 1 -1.73251 -2.85698 -3.37358 
1867 2 -3.06015 -2.31177 -3.45303 
657 1 -1.36897 -2.47899 -4.10438 
597 1 -0.71062 -2.40333 -3.34829 
1006 1 -0.271715 -2.09388 -4.14348 
1763 2 0.00958924 -2.86804 -4.6149 
1555 2 1.12954 -2.78082 -3.96328 
1525 2 0.812772 -2.62397 -4.6818 
1083 2 1.88373 -2.38443 -3.82624 
403 1 2.50108 -3.30678 -4.3055 
471 1 4.22684 -2.69457 -3.9007 
602 1 3.85732 -2.52358 -4.67235 
140 1 4.81779 -2.03201 -4.28032 
2010 2 5.19344 -3.23754 -4.20613 
999 1 5.21802 -1.68903 -5.01313 
784 1 5.79381 -1.71755 -4.39362 
562 1 4.9734 -2.43239 -3.57022 
66 1 -5.21176 -1.56294 -3.90108 
291 1 -4.6257 -1.74972 -3.02912 
161 1 -4.16213 -1.30932 -3.86881 
717 1 -3.56832 -0.82518 -4.11848 
1097 2 -3.15298 -1.61719 -4.71487 
704 1 -2.46316 -0.923445 -2.82783 
1271 2 -2.42867 -1.12495 -4.9522 
1908 2 -2.54831 -1.70433 -4.07854 
1478 2 -1.84444 -1.3982 -4.44114 
1296 2 -1.37412 -1.48301 -3.72529 
674 1 0.619363 -1.82027 -3.89151 
1573 2 -0.615473 -1.13981 -3.92867 
1870 2 0.137657 -1.0836 -3.38198 
421 1 0.0455187 -2.10295 -3.43263 
866 1 2.25459 -0.981203 -4.59056 
560 1 2.87841 -0.382596 -4.90665 
1676 2 2.39471 -2.07431 -4.33665 
1259 2 3.20507 -1.72473 -4.98517 
116 1 3.01842 -0.546906 -4.05013 
1363 2 3.47631 -1.59951 -4.33519 
2036 2 4.15389 -1.11485 -4.6171 
2048 2 4.05505 -1.58751 -3.68057 
740 1 -5.54002 -1.42163 -4.86069 
1623 2 5.72121 -0.432815 -4.70348 
1163 2 5.01006 -0.887668 -4.35307 
1110 2 4.87288 -1.26841 -3.54564 
2001 2 5.61871 -0.90411 -3.76674 
1830 2 -4.9409 -0.0535658 -4.56618 
1754 2 -4.78645 -0.40062 -3.44694 
818 1 -5.6158 0.790119 -3.96041 
1346 2 -4.03296 0.304926 -4.92437 
1111 2 -4.26336 -0.0113871 -4.01424 
214 1 -2.32532 -0.665014 -3.85439 
701 1 -2.88056 -0.339074 -4.53757 
1184 2 -3.18968 0.49158 -4.19776 
1643 2 -2.4596 0.395704 -3.57039 
1876 2 -3.40606 0.0471252 -3.37409 
749 1 -1.7805 -0.151461 -4.30608 
789 1 -1.20413 0.289859 -4.68372 
615 1 -1.04618 -0.183988 -3.70918 
517 1 -0.261907 0.556696 -4.93764 
1644 2 0.406091 -0.702761 -4.05861 
80 1 -0.100906 -0.0756861 -3.44165 
1673 2 1.13538 -0.557934 -3.52129 
1021 1 0.721027 0.317162 -3.32757 
1470 2 3.45033 1.09077 -5.16578 
1412 2 2.42742 0.293208 -3.9277 
2008 2 3.02268 0.342555 -3.27731 
299 1 3.77383 -0.112293 -4.46401 
700 1 3.77736 -0.633434 -3.57577 
715 1 4.40074 -0.094084 -3.96316 
302 1 5.0458 0.599258 -5.3202 
469 1 4.3017 0.275254 -4.96782 
872 1 5.19625 0.233641 -4.06799 
32 1 5.59974 0.667321 -4.60467 
1132 2 5.48208 1.51945 -3.93203 
1877 2 -5.71219 1.49839 -3.24419 
278 1 -4.7237 1.08439 -4.20868 
338 1 -4.05946 1.43446 -4.67358 
230 1 -3.44215 1.32149 -3.8672 
164 1 -2.92908 1.39833 -3.14087 
903 1 -2.36962 1.66289 -3.69765 
489 1 -1.84308 1.77682 -3.10104 
1550 2 -1.9655 0.925294 -4.18904 
1436 2 -1.30365 0.950375 -3.64328 
408 1 -0.440436 0.389193 -4.17532 
1149 2 -1.04593 1.37796 -4.56537 
1310 2 -0.511094 1.33851 -3.87536 
1683 2 0.342431 1.67429 -3.78258 
254 1 0.378377 0.657372 -4.29573 
594 1 1.11903 0.821979 -3.93535 
894 1 2.76666 1.70199 -4.0796 
874 1 3.38956 1.46863 -3.03286 
50 1 1.80374 1.15312 -3.62177 
1204 2 4.26877 1.59494 -5.56328 
1910 2 3.53796 0.790192 -3.91992 
1861 2 4.14309 1.05694 -4.54164 
1172 2 4.65027 1.14247 -3.72723 
1377 2 -5.13985 2.23048 -4.86673 
188 1 -5.382 3.14783 -4.32566 
69 1 -4.63261 3.18978 -3.71727 
1728 2 -5.25887 1.91804 -3.80606 
1512 2 -3.9283 2.11272 -3.44614 
1142 2 -3.47761 2.61725 -4.15156 
1794 2 -2.17493 2.97398 -4.13012 
1485 2 -2.90996 2.77101 -3.62788 
1015 1 -1.82795 2.06487 -4.30082 
1607 2 -1.63039 3.09312 -3.3858 
686 1 -1.31177 2.17089 -3.48952 
843 1 0.0627741 3.04745 -4.26034 
208 1 -0.830767 2.63148 -4.22611 
301 1 -0.236419 2.63399 -3.55618 
1769 2 1.26711 2.38538 -5.03215 
2020 2 1.65293 2.3762 -4.21663 
240 1 0.761211 2.92995 -3.67013 
2039 2 3.12708 3.05669 -4.35843 
1999 2 2.27841 2.58734 -3.65869 
1214 2 3.00164 2.58472 -3.47512 
731 1 4.43284 2.00353 -3.44989 
171 1 3.54625 1.86028 -3.74587 
1977 2 4.58038 3.26488 -3.51345 
631 1 5.82616 2.7203 -3.88287 
726 1 5.11139 2.72928 -4.51311 
702 1 5.20362 2.37768 -3.45953 
381 1 5.72342 2.46883 -2.89879 
1349 2 -5.52728 4.14328 -4.01854 
1575 2 -4.36593 4.53863 -3.72722 
676 1 -4.16307 3.6227 -4.25062 
1971 2 -4.54941 3.88075 -2.77871 
755 1 -3.04806 4.03164 -4.19572 
446 1 -3.49051 3.51225 -3.56399 
1275 2 -3.63829 4.35958 -3.0542 
577 1 -1.95129 4.39597 -4.06822 
250 1 -2.50563 3.93281 -3.6324 
612 1 -1.16467 4.92538 -4.13474 
1926 2 -1.23322 3.54014 -4.09044 
1372 2 -0.420063 3.94873 -4.06993 
1304 2 -0.692982 3.51584 -3.26046 
885 1 0.907114 3.19679 -4.55626 
1183 2 0.236088 3.87358 -3.50971 
478 1 1.64027 3.33764 -3.94979 
76 1 2.21866 3.93314 -4.49144 
34 1 2.64703 3.93798 -3.78398 
256 1 3.19028 4.23272 -4.68806 
1562 2 3.87514 3.2485 -4.02801 
653 1 3.44127 4.19138 -3.82446 
1439 2 4.78517 3.69274 -4.18583 
1636 2 5.37875 3.67885 -3.51193 
775 1 4.34336 4.48651 -3.90326 
662 1 -5.51494 5.38407 -3.90257 
993 1 -5.09958 5.14105 -3.27751 
579 1 -5.87779 4.91644 -2.96065 
346 1 -4.44417 -5.61831 -4.6574 
1413 2 -4.26542 4.79899 -4.6374 
1335 2 -3.47322 4.94891 -3.97824 
255 1 -3.9747 5.81434 -3.57926 
1757 2 -2.44307 5.25535 -3.85804 
1957 2 -2.88745 4.8552 -3.04102 
1542 2 -1.11139 -5.65361 -4.45713 
1151 2 -0.693752 -5.7567 -3.76292 
340 1 -1.49498 4.99533 -5.12749 
237 1 0.178476 5.40875 -4.57228 
123 1 -0.164172 4.98165 -3.90037 
82 1 0.480626 5.36297 -3.68325 
564 1 0.156256 4.76897 -2.99386 
673 1 0.93794 5.6984 -4.4161 
1668 2 0.582963 4.34268 -4.35558 
959 1 1.52881 5.76935 -3.88995 
1042 2 1.92627 4.93232 -4.17699 
1593 2 2.6572 5.18054 -4.53113 
501 1 3.95957 4.76506 -4.56606 
1612 2 4.29936 -5.75491 -4.82451 
1559 2 3.67666 5.64439 -4.39734 
1425 2 4.06812 5.39479 -3.54626 
1604 2 5.30855 5.77535 -3.25 
443 1 4.9048 5.03342 -4.40121 
918 1 5.56695 5.0109 -3.81 
1534 2 -4.84025 -5.88604 -2.46731 
182 1 5.48889 -5.21605 -2.3388 
1122 2 -3.96379 -5.37184 -2.00979 
1285 2 -3.18091 -5.2447 -2.22677 
1197 2 -3.19682 -4.83735 -3.15892 
260 1 -2.28363 -5.74328 -3.0799 
1047 2 -2.37626 -4.95717 -1.70201 
1807 2 -2.4984 -4.78551 -2.56226 
934 1 -1.49603 -5.65878 -2.19007 
5 1 -1.43753 -5.41833 -2.91835 
326 1 0.0297164 -4.87999 -2.56624 
1338 2 0.113686 -5.76327 -3.15727 
1928 2 0.87286 -5.68428 -2.7928 
459 1 -0.641322 -5.32848 -2.32647 
1082 2 1.16837 -5.24642 -3.51703 
1319 2 1.70489 -5.24985 -2.69933 
1528 2 2.35292 -5.00888 -3.19569 
487 1 2.32344 5.83423 -3.33466 
2019 2 2.81613 -5.05329 -2.44247 
1563 2 3.37274 -4.61517 -2.76709 
422 1 3.05447 5.87073 -2.79804 
1765 2 4.04774 -4.67388 -2.147 
542 1 4.20826 -5.63408 -2.37193 
153 1 4.39212 -5.0866 -3.69884 
284 1 4.90268 -5.17099 -2.99308 
1013 1 5.00186 -5.6588 -1.84411 
864 1 -5.9105 -4.79341 -2.87284 
666 1 -5.43062 -4.87456 -2.19182 
1201 2 -5.74682 -3.55865 -2.84585 
1817 2 5.44706 -3.92484 -2.37805 
411 1 -3.99178 -4.07286 -2.54011 
504 1 -3.42774 -3.73506 -3.07331 
246 1 -2.92889 -3.88763 -2.40291 
753 1 -2.42169 -3.37278 -3.05843 
677 1 -1.78133 -3.47439 -2.42348 
71 1 -2.40887 -3.74204 -1.73897 
1452 2 -1.48716 -4.38351 -2.75019 
1848 2 -1.18243 -3.87144 -3.36607 
1280 2 -0.582911 -4.01719 -2.437 
1402 2 -1.68883 -4.68111 -2.02992 
324 1 -1.02103 -3.22949 -1.84054 
1580 2 0.559114 -3.70922 -2.1368 
1457 2 -0.393148 -3.49398 -3.10797 
1991 2 0.501368 -3.39017 -2.9456 
107 1 0.773266 -4.43771 -2.84533 
938 1 1.42927 -4.11838 -3.50402 
20 1 2.01762 -4.00478 -2.86913 
321 1 2.73907 -3.57104 -3.32554 
914 1 3.72763 -3.23509 -3.17702 
550 1 2.70945 -3.69618 -2.41412 
1521 2 4.73236 -4.24158 -2.71777 
1530 2 4.29191 -4.89017 -1.38756 
928 1 4.33079 -3.31175 -2.30602 
1240 2 5.13835 -3.75463 -3.31717 
1767 2 4.83776 -4.40216 -1.91438 
1545 2 -4.90641 -3.13579 -2.79769 
968 1 5.87197 -2.08634 -3.52392 
636 1 -5.31665 -2.11956 -3.01815 
1400 2 -4.00267 -2.94973 -2.39881 
1948 2 -4.61168 -3.47699 -1.86256 
1289 2 -3.27803 -2.8534 -2.04997 
1052 2 -2.63314 -2.40552 -2.60858 
388 1 -1.19068 -2.93386 -2.65168 
526 1 -0.324309 -3.16908 -1.22062 
1401 2 0.30709 -3.10904 -3.77822 
573 1 0.316377 -2.717 -2.01212 
11 1 -0.272589 -2.56161 -2.51349 
1982 2 1.16933 -2.97492 -3.22715 
998 1 1.71827 -1.93754 -2.39046 
1738 2 1.91645 -2.88621 -2.90588 
1326 2 3.1818 -1.99971 -3.70782 
1533 2 2.67346 -2.41904 -3.27511 
1123 2 3.06352 -2.50558 -2.48082 
1973 2 4.09579 -2.12431 -2.23599 
1030 2 3.734 -2.08791 -3.05069 
754 1 4.50791 -2.89157 -2.89541 
311 1 5.18304 -3.03914 -2.04795 
296 1 5.30349 -2.68304 -2.72021 
213 1 -5.90154 -2.91925 -1.56749 
1826 2 -5.45667 -0.896308 -2.95223 
1946 2 -5.54738 -1.30645 -2.13401 
592 1 -5.01763 -2.27828 -2.13936 
1792 2 -4.69507 -0.890403 -2.3727 
767 1 -3.6591 -1.53619 -3.05924 
848 1 -4.02567 -1.90614 -2.33013 
37 1 -2.09141 -1.13088 -2.15302 
419 1 -3.03846 -1.10723 -3.49841 
117 1 -2.95965 -1.42592 -2.45668 
898 1 -1.23532 -0.548771 -2.28309 
1537 2 -2.19249 -2.04191 -3.22359 
1086 2 -0.69827 -1.83614 -2.11272 
1781 2 -1.46301 -1.58176 -2.9019 
1635 2 -0.627267 -1.35889 -2.90535 
1517 2 -0.00389518 -1.31964 -2.15268 
287 1 0.606863 -2.20926 -2.74987 
427 1 1.18028 -1.78872 -3.27155 
705 1 2.02439 -1.45864 -3.17191 
2027 2 0.893463 -1.32043 -1.99833 
640 1 3.06438 -1.17735 -3.0609 
581 1 2.40139 -1.12122 -3.74604 
106 1 2.50474 -1.54322 -2.48087 
125 1 3.51725 -1.17823 -2.31097 
334 1 4.99335 -0.247781 -3.07192 
1641 2 5.66683 -1.30848 -2.94504 
1350 2 4.64245 -1.6831 -2.83724 
1279 2 5.33422 -1.59736 -2.23662 
692 1 -5.18137 0.49994 -3.22041 
654 1 -5.09486 0.0721594 -2.07053 
297 1 -5.63593 0.149104 -2.73949 
824 1 -4.4083 0.468653 -2.59496 
2035 2 -4.10678 -0.553553 -3.02152 
1589 2 -3.43194 -0.476437 -2.28592 
1206 2 -2.82735 0.08394 -2.70147 
234 1 -1.67773 -0.616575 -3.25051 
1834 2 -1.92184 0.381066 -2.87231 
799 1 -0.183929 -1.03746 -1.06845 
625 1 0.267159 -0.0354813 -2.46792 
499 1 -0.622527 -0.386478 -2.80242 
630 1 -0.39449 -0.546355 -1.79209 
1456 2 0.625901 -0.920738 -2.74156 
1832 2 1.40087 -0.708897 -2.50392 
776 1 1.24715 0.245506 -2.09223 
1502 2 1.94409 -0.291635 -3.29586 
1696 2 2.5773 -0.210113 -2.62829 
846 1 4.16429 -0.721078 -2.91538 
1320 2 3.47015 0.202079 -2.65234 
1680 2 4.11384 -0.235582 -1.42776 
109 1 5.65979 0.195078 -3.39341 
1952 2 4.21256 0.272528 -2.18959 
241 1 5.56416 -0.363796 -2.43583 
1986 2 -5.28673 1.37676 -2.47949 
1724 2 -4.44517 1.37958 -2.00602 
912 1 -3.92889 0.372991 -1.92179 
1720 2 -4.69612 1.70833 -3.04226 
900 1 -4.32542 0.931678 -3.52866 
1282 2 -3.83687 1.85562 -2.46549 
613 1 -3.68261 0.894673 -2.97512 
259 1 -2.35522 1.37887 -2.41854 
94 1 -3.0935 0.850268 -2.08354 
189 1 -1.13885 1.63975 -2.41637 
1104 2 -0.937582 0.631432 -2.86413 
1386 2 -0.0167817 1.08629 -3.16392 
1893 2 0.799963 1.478 -2.94387 
1187 2 1.18193 1.88653 -3.63387 
963 1 1.52043 0.604002 -3.01135 
1838 2 1.46688 1.6187 -2.51674 
464 1 2.08502 0.769256 -2.41623 
90 1 2.65026 1.31968 -3.37472 
1953 2 4.03143 0.634045 -3.25866 
232 1 4.18592 1.45617 -2.56269 
1654 2 5.40802 1.09494 -3.04568 
1858 2 4.8062 0.637967 -2.82998 
944 1 4.91536 2.01251 -2.68179 
1803 2 5.75454 0.946486 -2.22471 
194 1 5.47667 1.98725 -2.14348 
811 1 -5.59181 2.31443 -2.31617 
7 1 -5.37917 2.81705 -3.37585 
926 1 -4.79053 2.63675 -2.56605 
761 1 -4.9916 2.3632 -1.70604 
369 1 -4.04195 3.01408 -3.03167 
276 1 -3.56302 3.22838 -2.31942 
1938 2 -3.31542 2.33041 -2.8871 
1415 2 -2.30571 2.66519 -3.06394 
26 1 -2.59617 3.36808 -1.9144 
1839 2 -2.66819 2.37561 -2.13821 
1689 2 -1.03464 2.85454 -2.6445 
1476 2 -1.74982 2.57067 -2.23531 
719 1 -0.523149 2.10639 -2.98664 
134 1 0.614062 2.67497 -2.89245 
1340 2 1.9064 1.96614 -3.087 
937 1 1.51136 3.08835 -3.10489 
896 1 1.952 2.88332 -2.33532 
1642 2 2.63323 2.16635 -2.80991 
1967 2 2.38706 1.8463 -2.14559 
1522 2 3.74038 2.95043 -3.24892 
1461 2 3.39579 2.39326 -2.56776 
1026 2 4.42552 2.49634 -1.47957 
1994 2 4.25333 2.80798 -2.52897 
1333 2 5.02822 3.26723 -2.80006 
1669 2 -4.32638 3.75394 -1.62734 
1278 2 -5.25429 3.92432 -3.34679 
355 1 -5.90014 4.43551 -2.15345 
1419 2 -5.08704 3.49897 -2.22427 
1287 2 -4.63155 3.41855 -0.998019 
1325 2 -4.02086 4.2176 -2.2987 
989 1 -2.94655 3.56107 -2.84719 
772 1 -2.06569 3.8265 -2.75874 
1601 2 -3.11996 4.46162 -2.14232 
17 1 -1.59766 4.24496 -3.42275 
733 1 -1.19613 4.09844 -2.53136 
568 1 -0.790215 4.61323 -3.26175 
1616 2 0.222775 3.66794 -2.70585 
1981 2 1.07419 4.00803 -2.85625 
1071 2 1.27045 4.40721 -3.78921 
1997 2 1.38016 3.61707 -2.01151 
394 1 2.34628 3.4397 -3.15879 
448 1 2.76968 3.21405 -2.39115 
1854 2 1.84607 4.38461 -2.9458 
835 1 3.2592 3.78739 -2.9414 
262 1 4.12928 4.09774 -2.9985 
552 1 3.58156 3.56531 -2.10818 
166 1 5.13969 4.32775 -2.47943 
1918 2 -5.42289 5.73607 -2.02731 
952 1 -4.95791 4.79567 -2.43855 
342 1 -4.67863 5.72229 -4.15501 
589 1 -4.30903 5.20958 -2.94975 
295 1 -2.48388 5.9691 -2.32103 
1008 1 -3.31335 5.78947 -2.89207 
1236 2 -1.9363 5.20678 -2.9987 
119 1 -3.74607 5.46345 -2.25657 
1329 2 -1.66063 5.6545 -4.04117 
1571 2 -1.40016 5.07432 -2.35601 
1029 2 -0.823078 5.6194 -3.12979 
1818 2 -0.205425 5.6267 -2.49134 
836 1 -0.363682 4.44812 -2.3991 
652 1 1.18021 5.25133 -3.13125 
736 1 0.814524 4.86771 -2.35189 
490 1 1.68257 5.06587 -2.00002 
187 1 0.90282 4.40685 -1.46803 
1499 2 2.42387 4.80755 -3.38325 
1764 2 3.01339 5.213 -3.85421 
41 1 1.93081 5.44708 -2.7821 
1126 2 2.83537 4.65882 -2.58799 
461 1 2.52976 5.6104 -2.21617 
1714 2 3.48367 4.95253 -3.07102 
1318 2 4.53843 5.43284 -2.79404 
1090 2 3.96692 4.97355 -2.33688 
1489 2 -5.83518 5.85351 -2.74625 
370 1 4.97319 4.6357 -3.22279 
2000 2 5.28262 5.41954 -2.43257 
452 1 5.89059 -5.48371 -1.52978 
724 1 -5.1533 -5.13279 -1.36788 
798 1 -4.30321 -4.56978 -1.49166 
1404 2 -3.40794 -5.60448 -1.33042 
366 1 -3.685 -4.54798 -0.991028 
1822 2 -4.12561 5.8201 -0.791669 
1783 2 -2.56057 -5.21728 -0.948948 
1454 2 -3.06523 -5.71332 -0.405274 
1843 2 -1.81129 -5.19842 -0.563383 
337 1 -0.961966 -5.67523 -1.57615 
1106 2 -1.39949 -4.86614 -1.09575 
328 1 0.70042 -4.80877 -2.10251 
147 1 0.0707951 -5.30568 -1.71571 
678 1 -0.220058 -5.59886 -0.936258 
661 1 1.56769 -4.42522 -2.13109 
569 1 2.10082 -4.65824 -1.09152 
1081 2 1.17089 5.47875 -0.956327 
249 1 1.24135 -4.9402 -1.37336 
1199 2 2.06654 -5.49567 -1.94522 
1984 2 1.27338 -5.76887 -1.84598 
2004 2 3.24889 -5.1321 -1.57371 
1749 2 3.72001 -5.36017 -0.873548 
1859 2 4.53873 -5.18644 -0.416823 
802 1 5.1958 -5.69485 -1.05159 
1217 2 -5.09144 -3.88269 -1.15885 
1131 2 -5.53684 -4.25509 -0.707883 
1387 2 -5.37794 -3.77475 -2.02591 
1857 2 -4.35792 -3.58701 -1.08261 
21 1 -3.54811 -4.23315 -1.82496 
844 1 -2.90518 -4.19409 -1.15446 
986 1 -1.66664 -3.73185 -1.36617 
634 1 -0.884898 -3.59142 -0.764291 
816 1 -2.04281 -4.17108 -0.706266 
1878 2 -0.970314 -4.4248 -1.72209 
1613 2 -0.407101 -4.51371 -1.02926 
1896 2 -0.0464915 -4.04905 -1.73345 
1263 2 1.44245 -3.19491 -2.37606 
1894 2 0.85652 -3.96199 -1.27178 
1923 2 1.55106 -3.5148 -1.61156 
286 1 2.99746 -4.16353 -1.46581 
1019 1 2.46173 -4.27851 -1.94614 
1985 2 2.14812 -3.55844 -1.101 
137 1 3.52358 -3.6569 -2.28871 
605 1 4.52916 -3.43422 -1.4075 
385 1 3.64462 -3.84939 -1.49971 
2002 2 5.78242 -4.23067 -1.47278 
2017 2 4.94088 -4.69204 -1.05026 
159 1 4.55536 -3.77015 -0.478581 
275 1 -5.10937 -2.63585 -1.27553 
219 1 -5.69031 -3.07551 -0.531477 
285 1 -4.37861 -2.30017 -1.58175 
58 1 -3.88315 -2.30098 -0.903171 
1442 2 -3.70565 -3.27496 -1.5196 
532 1 -4.6033 -2.7879 -0.604293 
1682 2 -1.80672 -2.21546 -2.30025 
1505 2 -2.43119 -2.53717 -1.7025 
1391 2 -1.6948 -2.71874 -1.07454 
1449 2 -2.88359 -3.03815 -1.17499 
1069 2 -1.15628 -2.25827 -1.58991 
1808 2 -0.692057 -2.2897 -0.803459 
1113 2 -1.45484 -2.80665 -0.223762 
566 1 1.08829 -2.36465 -1.89058 
347 1 0.572914 -2.96592 -1.06916 
1057 2 0.277177 -2.16681 -0.537689 
913 1 0.0926267 -3.44277 -0.436826 
703 1 0.972434 -3.04047 -0.11667 
211 1 1.25453 -2.5771 -1.11107 
215 1 1.94106 -2.83116 -0.58024 
1066 2 2.33383 -2.93897 -1.99963 
1947 2 2.8759 -3.13911 -1.22662 
199 1 2.56762 -2.16774 -0.830061 
1708 2 3.35061 -2.71843 -1.80762 
1698 2 4.96627 -2.08991 -1.65822 
1787 2 4.15002 -2.47047 -1.41305 
314 1 5.32493 -3.50681 -1.06006 
734 1 -5.85279 -2.52084 -2.45211 
1978 2 5.35507 -2.36584 -1.01905 
1028 2 4.64551 -2.64411 -0.672897 
1167 2 -5.83048 -1.75978 -1.4586 
1587 2 -5.12213 -1.65689 -0.843106 
1972 2 -4.10809 -0.919366 -1.81095 
1299 2 -4.79836 -1.16344 -1.42567 
1025 2 -3.7464 -1.00882 -1.08097 
1432 2 -3.06727 -0.543814 -1.41404 
917 1 -3.49113 -1.82746 -1.65444 
548 1 -2.61032 -1.59996 -1.50955 
59 1 -1.49168 -1.1387 -1.56716 
468 1 -0.982711 -1.10308 -1.0383 
1819 2 -0.203466 -2.00166 -1.48556 
1916 2 0.568698 -1.68395 -1.34282 
1360 2 1.50643 -1.21951 -1.46418 
377 1 2.10148 -2.10972 -1.5604 
691 1 2.89304 -1.68052 -1.64778 
1897 2 2.56617 -0.856661 -1.22771 
626 1 4.07905 -1.24002 -1.68376 
962 1 3.52618 -1.63272 -1.01048 
867 1 4.74547 -0.756659 -2.22939 
198 1 4.72087 -1.27573 -0.976586 
279 1 5.32741 -0.822128 -1.56171 
958 1 -5.35214 -0.45073 -1.02075 
518 1 -5.80028 -0.336993 -1.64149 
1468 2 5.84445 0.515141 -1.19818 
876 1 -4.52559 -0.0869879 -1.3311 
472 1 -3.74832 0.00679732 -0.676905 
921 1 -3.30757 0.398489 -1.19083 
1098 2 -2.21717 -0.487961 -0.779194 
1507 2 -1.31478 -0.3979 -0.413096 
1761 2 -1.6186 0.293093 -2.08226 
2043 2 -2.58588 -0.0917522 -1.94056 
1067 2 -1.63017 -0.0755333 -1.24437 
1735 2 -0.773626 0.347577 -1.80025 
447 1 0.498714 -0.270029 -1.67449 
601 1 0.521656 -0.523746 -0.873933 
1213 2 0.180623 0.638483 -1.24542 
160 1 1.32694 -0.20173 -1.39898 
886 1 2.29123 0.326818 -1.67503 
121 1 1.43897 -0.437801 -0.466781 
1568 2 2.10181 -0.692164 -2.01641 
1314 2 3.24289 -0.281366 -1.91115 
243 1 2.98192 0.662245 -1.37743 
84 1 3.82938 0.741201 -1.07048 
1758 2 3.42664 -0.542014 -0.839754 
2030 2 4.91649 0.195099 -1.26456 
1220 2 5.19321 0.519494 -2.028 
1564 2 5.52256 0.0821425 -0.443972 
1059 2 -4.80312 0.846165 -0.870852 
966 1 -4.82472 1.95219 -0.881006 
1508 2 -5.39219 0.926132 -1.61771 
16 1 -5.729 1.80915 -1.27213 
2038 2 -4.27258 1.28464 -1.23208 
1229 2 -3.47261 1.44063 -0.684262 
1520 2 -3.5401 1.77604 -1.68691 
357 1 -2.52713 0.880698 -1.49632 
1170 2 -2.83999 1.90485 -1.2084 
397 1 -1.71468 1.33589 -1.86663 
115 1 -0.379597 1.84751 -1.84964 
608 1 -0.953699 1.07757 -0.464736 
919 1 -1.01624 1.23917 -1.34244 
2022 2 -0.162503 0.85305 -2.15937 
585 1 0.16571 2.10173 -2.59625 
660 1 -0.157276 1.48695 -0.996766 
1297 2 0.727006 1.16058 -2.0098 
1860 2 1.03475 0.923343 -1.0616 
1215 2 0.823925 0.510419 -0.337007 
1944 2 1.64572 1.23414 -1.63112 
1158 2 2.35018 1.56156 -1.09866 
1368 2 3.02532 1.87623 -1.54338 
1017 1 2.8506 1.09093 -2.36011 
1866 2 3.79582 1.82725 -0.984562 
104 1 3.63457 1.12309 -1.96141 
110 1 4.5186 1.32162 -1.79179 
351 1 5.49371 1.38836 -0.597015 
920 1 5.32283 1.46167 -1.35349 
516 1 -4.25363 2.72253 -1.94147 
1105 2 4.98634 2.87314 -1.99785 
323 1 -3.18806 2.93833 -1.40811 
460 1 -2.24416 3.12549 -1.13689 
1959 2 -2.06332 2.24519 -1.45665 
696 1 -3.22408 2.63629 -0.529082 
2021 2 -0.987558 2.58315 -1.6477 
1092 2 -1.26872 2.32959 -0.837027 
1756 2 -0.347441 2.99925 -2.10515 
910 1 0.554553 2.04801 -1.59823 
1247 2 0.202304 2.96733 -1.35511 
823 1 0.797405 1.96827 -0.686361 
945 1 1.21172 2.53292 -2.1894 
747 1 1.32738 2.20973 -1.43642 
828 1 2.82521 2.69307 -0.768898 
143 1 2.12498 2.63089 -1.39629 
181 1 2.95774 2.8757 -1.74372 
1686 2 3.83904 2.12991 -1.81405 
906 1 3.60458 3.14546 -1.28276 
1527 2 -5.84883 3.54197 -2.74594 
1825 2 5.58169 2.62187 -1.17629 
1330 2 -5.44793 2.98372 -1.11465 
1554 2 4.86623 2.26934 -0.776126 
974 1 -5.21819 4.47946 -1.61193 
506 1 -5.77785 4.07988 -1.13078 
1992 2 -3.50296 4.03878 -1.33632 
1853 2 -3.71698 3.47711 -0.7277 
1072 2 5.84845 3.31194 -1.99313 
1348 2 -2.77494 4.07001 -0.802564 
1344 2 -2.46607 4.30342 -1.5396 
1646 2 -1.83412 4.31202 -0.771789 
520 1 -1.63054 3.61118 -1.97391 
111 1 -1.31003 3.46146 -1.00476 
720 1 -1.88639 3.10183 -0.30713 
86 1 -0.885952 3.97097 -1.62565 
1679 2 0.546274 3.40201 -1.90953 
361 1 0.160018 4.37374 -1.7549 
418 1 -0.226916 3.80161 -1.15472 
1968 2 2.13154 3.66198 -1.31866 
1107 2 1.20917 3.33224 -0.986833 
905 1 1.43796 4.07634 -0.0411637 
1428 2 2.21207 4.21713 -2.22734 
1405 2 2.73226 3.72254 -0.611297 
1913 2 2.75379 4.0263 -1.63278 
1868 2 3.46567 4.54392 -1.80491 
1178 2 4.11764 4.54584 -1.20356 
432 1 4.43769 3.8946 -2.16472 
582 1 5.27745 4.00353 -1.56338 
1362 2 -4.6257 5.90559 -1.50633 