ITEM: TIMESTEP
11800
ITEM: NUMBER OF ATOMS
2048
ITEM: BOX BOUNDS pp pp pp
-5.9386920353036992e+00 5.9386920353036992e+00
-5.9386920353036992e+00 5.9386920353036992e+00
-5.9386920353036992e+00 5.9386920353036992e+00
ITEM: ATOMS id type x y z 
1192 2 5.97486 -5.24243 -4.64853 
435 1 -5.46556 5.81072 -5.10368 
412 1 -4.80258 -5.60834 -5.68806 
825 1 -4.65385 5.95573 -4.81445 
554 1 -3.86718 -5.33208 -5.41337 
91 1 -2.85803 -4.93354 -5.30732 
508 1 -2.43877 -5.44881 -4.00907 
247 1 -2.01064 -4.48095 -5.50087 
1291 2 -0.696889 -5.23219 -5.04563 
1035 2 -0.204578 -4.92043 -5.55453 
1429 2 0.288266 -4.97055 -4.78705 
1694 2 0.340757 -4.34985 5.48815 
648 1 2.04095 -5.57875 -4.91123 
503 1 0.865493 -5.73499 -5.21981 
673 1 1.37068 5.89593 -4.46134 
723 1 2.25478 -4.89535 5.79512 
49 1 2.71025 -5.0748 -5.42505 
1244 2 4.52751 -5.24702 -5.62503 
857 1 2.98646 -4.37064 5.26493 
1272 2 5.22839 -5.65574 -4.1247 
1799 2 5.55946 -5.09136 -5.59964 
1633 2 -4.80393 -4.62787 -5.3281 
511 1 -5.49945 -3.66385 -5.38608 
373 1 -5.45513 -4.07098 -4.40463 
991 1 -4.91475 -3.60013 -4.88696 
1548 2 -3.36673 -4.14236 -4.79917 
1663 2 -4.02569 -4.05214 -5.47844 
2016 2 -4.21366 -4.55037 -4.6529 
1261 2 -3.06754 -3.85855 -5.53789 
2009 2 -2.12477 -3.47797 -5.11189 
855 1 -1.22035 -4.43041 -4.82819 
1581 2 -1.59909 -3.49993 -4.4427 
416 1 -0.591671 -3.9481 -5.39811 
227 1 -0.183961 -3.98079 -4.73587 
819 1 0.332381 -3.52862 -5.40363 
1746 2 0.569483 -4.53083 -5.52423 
1790 2 1.75995 -4.1558 -5.75842 
1709 2 1.30376 -4.43927 -5.12406 
1737 2 2.52976 -4.16508 -4.97461 
1902 2 3.12079 -3.66676 -5.3813 
64 1 3.32391 -4.59303 -5.92919 
1995 2 4.81821 -2.93697 -5.58987 
1475 2 4.34368 -3.33732 -4.7497 
19 1 4.1476 -4.32977 -5.51845 
223 1 5.66827 -4.04672 -5.04971 
1588 2 -5.29658 -2.22319 -5.39373 
1243 2 -4.71186 -2.40196 -4.79339 
269 1 -4.07778 -2.68402 -5.81607 
1341 2 -4.36512 -1.63069 -5.65037 
353 1 -4.25969 -3.11416 -5.11424 
402 1 -3.46455 -2.4478 5.63921 
196 1 -2.8584 -3.01759 -4.4153 
664 1 -3.40746 -2.82737 -5.20244 
1711 2 -1.68859 -2.82243 -5.76896 
151 1 -2.59336 -2.59889 -5.19187 
1379 2 -1.11043 -3.01857 -5.12414 
1255 2 -0.563979 -2.57554 -5.75491 
1763 2 -0.042122 -2.66896 -4.97266 
202 1 0.840339 -3.23264 5.56913 
1525 2 1.15559 -2.28348 -4.96494 
136 1 1.39113 -3.30674 -5.45753 
1820 2 1.26733 -1.86592 -5.83053 
939 1 2.01934 -2.82713 -5.72328 
169 1 2.34113 -2.19905 5.10609 
694 1 2.75324 -2.27268 -5.89594 
475 1 3.61422 -1.99855 -5.85264 
485 1 3.29646 -2.55806 -5.15963 
1070 2 3.93543 -3.31392 -5.49199 
609 1 4.61835 -1.66077 -5.89506 
1465 2 5.71215 -2.51255 -5.6802 
904 1 4.34399 -1.94407 -5.05969 
2032 2 4.95261 -2.50794 5.43922 
543 1 -5.66446 -1.28399 -5.19501 
833 1 -4.57065 -0.933837 -4.87329 
214 1 -3.81999 -0.821737 -4.61388 
1733 2 -2.89998 -1.19237 -5.17238 
1809 2 -2.07187 -0.979784 -4.95557 
1271 2 -2.69793 -1.76947 -4.48541 
1908 2 -1.71755 -1.14531 -4.32728 
1478 2 -1.28401 -0.674006 -5.23598 
387 1 -2.65863 -2.14609 -5.91086 
35 1 -1.81369 -2.07968 -5.15193 
367 1 -0.271075 -1.23109 -5.55683 
830 1 -1.0311 -1.72965 -5.24245 
768 1 1.41624 -0.981489 -4.86057 
1190 2 1.98097 -1.99354 -5.15738 
8 1 0.455983 -1.53995 -5.11523 
1964 2 2.39917 -1.35077 -5.66972 
1775 2 2.91972 -1.62442 -4.82315 
1224 2 3.32976 -1.08792 -5.51932 
1332 2 4.38346 -0.79064 -5.52117 
771 1 5.57259 -1.40562 -5.68377 
740 1 5.16793 -1.95866 -4.91412 
1623 2 4.97743 -0.787212 -4.58525 
1498 2 -5.53438 0.146196 -5.58554 
1346 2 -5.19617 -0.0496708 -4.94044 
505 1 -3.91856 -0.470726 -5.3951 
2028 2 -4.64641 0.56392 -5.4235 
932 1 -4.5875 -0.654508 -5.72584 
55 1 -3.86826 -0.234829 5.54739 
374 1 -2.47943 0.265372 -5.42972 
451 1 -3.24336 -0.127147 -5.48605 
1414 2 -0.774679 -0.0917923 -5.66549 
212 1 -1.56017 0.72705 -5.87623 
827 1 -1.66435 0.370033 -4.96184 
1572 2 -0.276178 -0.17735 -5.0953 
1171 2 0.288056 -0.0197914 -5.77271 
1223 2 1.38589 0.195069 -4.74512 
1975 2 0.591165 -0.250029 -4.85377 
31 1 1.99176 -0.448434 -5.40681 
195 1 3.23907 -0.048249 -5.13471 
758 1 3.71747 0.301378 -5.86257 
299 1 4.16582 0.257914 -5.05934 
60 1 4.63269 0.715193 -5.66912 
1830 2 -5.93041 -0.473201 -4.65323 
1634 2 5.54175 -0.204386 -5.43162 
302 1 5.22675 0.567132 -5.04202 
656 1 -5.47344 1.42541 -5.79396 
338 1 -5.0278 1.43022 -4.92467 
1184 2 -4.12136 0.39624 -4.82819 
752 1 -4.57651 1.75764 -5.66568 
697 1 -3.8541 1.75974 -5.28862 
1343 2 -3.72734 0.788648 -5.72571 
1643 2 -3.2122 0.664326 -4.56269 
903 1 -2.41147 2.27911 -4.67558 
1256 2 -3.03846 1.02963 -5.26234 
1443 2 -2.26751 1.3691 -5.62884 
1050 2 -1.16111 1.92081 -5.339 
1054 2 -1.68936 1.46368 -4.80537 
1063 2 -0.49664 1.78627 -4.86466 
829 1 -0.735563 0.987021 5.79343 
842 1 -0.203051 0.989437 -5.45491 
408 1 0.550194 1.09386 -5.2171 
254 1 1.323 1.32029 -4.49794 
380 1 1.6725 1.5854 -5.28147 
1470 2 2.69439 0.910739 -5.34432 
1412 2 2.21921 0.341358 -4.43281 
760 1 2.17857 1.51074 -4.59974 
1910 2 3.14774 1.09279 -4.67151 
1845 2 3.5288 1.43118 -5.54871 
420 1 -5.83486 1.0103 -5.00584 
1204 2 4.04561 1.13117 -4.61471 
1396 2 5.18279 1.86782 -5.33159 
1403 2 -5.89313 2.31655 -5.53705 
204 1 5.76014 3.12964 -5.045 
1620 2 -4.7671 2.70752 -5.56336 
1869 2 -4.08175 3.2193 -5.81763 
980 1 -3.72969 2.13263 5.73999 
820 1 -3.12386 2.22404 -5.1416 
1015 1 -1.43147 2.27434 -4.06397 
1175 2 -3.67447 3.1007 -5.17272 
494 1 -2.29645 2.56072 -5.45245 
710 1 -0.896046 3.02125 -5.58588 
982 1 -1.42139 2.65536 -4.87714 
1639 2 -0.474283 2.14785 5.87921 
1884 2 0.132561 2.05684 -5.46665 
1506 2 0.815272 2.63269 -5.6111 
310 1 -0.230085 3.0735 -4.8674 
1628 2 1.66381 2.79375 -5.06678 
1653 2 0.745074 2.24764 -4.93865 
895 1 2.22473 2.04591 -5.61956 
1979 2 2.39697 3.37158 -5.61705 
1769 2 1.8327 2.50182 -4.27063 
2039 2 2.67211 2.98124 -4.49559 
1011 1 2.86866 2.13498 -4.92405 
621 1 3.86736 2.47255 -4.89107 
1431 2 5.80021 2.02601 -4.67616 
396 1 4.57723 2.74781 -5.25553 
178 1 5.24176 3.06197 -5.66879 
923 1 -5.1054 3.50782 -4.93213 
644 1 -5.51912 3.63294 -5.62489 
797 1 -3.7168 4.32831 -5.67386 
45 1 -4.54561 4.06871 -5.28357 
509 1 -3.04773 4.72256 5.7288 
92 1 -3.84148 4.07841 -4.70159 
1824 2 -2.47948 3.48823 -5.12346 
755 1 -3.12736 4.16247 -4.32746 
1161 2 -1.53529 3.84124 -5.27437 
1268 2 -1.89175 3.38125 -4.49048 
1336 2 -2.12 3.82335 5.98015 
1926 2 -0.820844 4.0262 -4.59202 
561 1 -0.105741 3.43513 -5.6468 
815 1 0.915883 3.97978 -5.72728 
415 1 2.81291 4.6341 -5.76192 
72 1 1.58257 4.19056 -5.89355 
716 1 2.25263 4.3292 -5.08385 
777 1 3.11307 4.46544 -4.90713 
1274 2 3.10944 3.4306 -5.20072 
1342 2 3.7766 3.77503 -5.62965 
256 1 2.83567 4.08105 -4.20041 
1618 2 4.28849 3.73879 -4.91348 
1779 2 4.70312 3.96063 -5.5654 
1073 2 5.154 4.11287 -4.79283 
1640 2 5.92547 4.46294 -5.29147 
1048 2 -5.18496 4.73909 -4.86568 
699 1 -5.61983 5.47904 -4.24812 
1353 2 -3.8598 5.33221 -5.01101 
1539 2 -3.22948 5.64352 -5.73479 
1088 2 -4.63034 5.20483 -5.55792 
1542 2 -1.89632 5.96797 -5.06468 
1526 2 -2.88249 5.53941 -5.02614 
729 1 -3.06904 4.55094 -5.21154 
1365 2 -2.34812 6.0012 -5.671 
687 1 -1.98265 4.45216 -4.12434 
221 1 -1.52303 4.86848 -4.81481 
495 1 0.119675 -5.78141 -5.82806 
123 1 -0.55664 5.58271 -5.35044 
1354 2 0.0852747 4.21138 -4.6398 
1039 2 0.64093 4.65174 -5.16773 
1033 2 1.22038 5.09303 -5.48275 
1668 2 1.56081 4.79796 -4.54013 
946 1 3.64873 4.91167 -5.50717 
1193 2 1.81851 5.57662 5.76693 
1846 2 2.82986 5.74108 -5.65466 
1847 2 2.15624 5.40338 -5.39265 
501 1 4.58619 5.10108 -5.385 
1667 2 4.05356 -5.79542 -4.92505 
1002 1 -5.74809 5.85836 -5.76623 
407 1 5.47213 5.47142 -5.12723 
318 1 5.12885 5.77338 5.87645 
1358 2 -5.67974 -5.42687 -3.94244 
1312 2 -4.97583 -5.20614 -3.59388 
333 1 -3.05643 -5.34757 -4.64051 
1394 2 -4.10993 -4.76225 -3.78358 
14 1 -3.40767 -5.55057 -3.8271 
1079 2 -3.24637 -4.50579 -4.0864 
1418 2 -5.04564 -4.96474 -4.51054 
1008 1 -2.95711 -5.83118 -3.11465 
805 1 -2.24068 -4.96126 -4.67979 
274 1 -1.49854 -4.94699 -4.29144 
453 1 -1.01669 -4.97869 -3.32106 
1151 2 -1.21737 -5.80932 -4.60171 
1029 2 -0.638052 5.83594 -3.6669 
1334 2 -0.39488 -5.52635 -4.17075 
1260 2 0.4158 -5.31077 -3.61964 
1338 2 -0.0109747 -5.81175 -3.07951 
1486 2 0.982366 -4.93107 -4.2626 
575 1 2.21519 -5.71801 -4.00428 
1592 2 2.07339 -4.75559 -3.77584 
667 1 3.21066 -5.28948 -4.652 
180 1 3.07786 -5.52044 -3.64912 
809 1 4.21121 -4.69845 -4.52945 
57 1 3.62594 -4.73404 -5.13914 
131 1 3.85239 -5.0977 -3.91644 
955 1 3.91114 -5.49695 -3.06113 
1875 2 4.92667 -5.49727 -4.82064 
1604 2 5.69388 -5.88342 -3.46452 
847 1 4.6788 -4.84987 -3.7 
273 1 -4.47879 -3.66096 -4.15591 
878 1 -5.03633 -4.06843 -3.46605 
218 1 -3.6755 -3.29824 -4.53081 
483 1 -4.13177 -3.8147 -3.30214 
1477 2 -2.47051 -4.00672 -4.47462 
1807 2 -2.53858 -4.35582 -3.55798 
1452 2 -1.85695 -4.02241 -3.71245 
902 1 -0.667919 -4.54548 -4.06204 
1280 2 -1.21485 -4.01772 -2.90654 
1848 2 -1.0152 -3.48292 -3.76368 
467 1 0.371362 -4.06608 -4.02938 
326 1 -0.00284007 -4.61084 -3.09044 
413 1 0.914362 -3.64165 -4.55254 
122 1 1.69396 -3.81406 -3.74817 
1836 2 2.80569 -4.42779 -4.25471 
1678 2 1.83956 -4.63791 -4.63376 
403 1 2.42309 -3.45761 -4.02842 
1129 2 3.55229 -3.9233 -4.49551 
2010 2 4.24076 -3.7496 -3.94909 
1655 2 5.11096 -3.54353 -3.69349 
496 1 4.86846 -4.32196 -4.99761 
339 1 5.5738 -4.34303 -4.29573 
1201 2 5.89468 -3.46306 -3.16924 
284 1 5.44312 -4.79458 -3.34225 
1937 2 -5.72619 -2.773 -4.84577 
291 1 -5.33588 -2.06029 -3.50561 
1664 2 -5.02336 -2.85723 -4.11748 
524 1 -3.5204 -3.56161 -3.76484 
1911 2 -4.03922 -2.24678 -4.4551 
2007 2 -3.2531 -2.32352 -3.43984 
1924 2 -4.17365 -2.66542 -3.74972 
236 1 -2.53533 -3.21735 -3.54717 
657 1 -1.91078 -2.63311 -4.10212 
573 1 -0.670507 -2.21871 -3.65005 
597 1 -1.25035 -2.16033 -4.35133 
1006 1 -0.452113 -1.85169 -4.57283 
1370 2 -0.477875 -3.08223 -4.45525 
1645 2 0.0972194 -3.19567 -3.78839 
998 1 -0.0745824 -2.38318 -3.04327 
1555 2 0.715137 -2.73103 -4.31324 
1083 2 1.6193 -2.50595 -4.17599 
1982 2 1.20357 -2.89156 -3.41012 
1676 2 2.22042 -2.52265 -3.50922 
277 1 2.38863 -2.96972 -4.9971 
1259 2 2.42259 -2.10696 -4.34385 
547 1 1.73676 -3.46049 -4.58874 
999 1 4.86395 -2.16899 -4.18225 
471 1 3.10114 -2.86485 -4.18855 
1657 2 5.14185 -3.04766 -4.67573 
1871 2 5.89938 -3.14318 -4.02058 
784 1 4.77679 -2.66724 -3.33249 
66 1 5.5473 -2.25863 -3.69511 
161 1 -5.04427 -1.50276 -4.28444 
205 1 -5.90759 -1.79427 -4.56468 
1745 2 -3.70292 -1.83315 -5.07767 
717 1 -4.28216 -1.2701 -3.85797 
848 1 -3.61665 -1.37291 -3.34619 
704 1 -3.20268 -0.809776 -4.00041 
1097 2 -3.36215 -1.98357 -4.21257 
1682 2 -2.48252 -2.07318 -3.38707 
1867 2 -2.14968 -1.5847 -3.85769 
1781 2 -1.57828 -1.74532 -3.06977 
1537 2 -1.10005 -1.28507 -3.65191 
1644 2 -0.070115 -1.09497 -3.46377 
1296 2 -0.926943 -0.794011 -4.48686 
11 1 0.166769 -2.0349 -3.90362 
421 1 0.853207 -1.61639 -4.32714 
674 1 1.89141 -1.16131 -4.21338 
560 1 2.49141 -0.612482 -4.75312 
640 1 2.02932 -1.5867 -2.94619 
2036 2 3.90566 -1.15621 -4.85572 
1326 2 2.86639 -1.85198 -3.58755 
1363 2 3.53776 -1.55626 -4.26695 
2048 2 3.99136 -1.83374 -3.46492 
116 1 3.51338 -0.969799 -3.21899 
2001 2 5.48727 -1.03756 -3.90164 
1110 2 4.84943 -1.39846 -3.29869 
1163 2 4.4383 -1.22488 -4.04802 
1754 2 -5.3738 -0.579296 -3.91548 
692 1 5.89204 0.0784045 -3.24808 
2035 2 -4.56413 -0.3465 -3.34191 
1826 2 -5.74803 -1.06033 -3.2803 
1111 2 -3.82844 0.203586 -3.99748 
1962 2 -4.71048 -0.0995235 -4.21959 
1876 2 -3.70629 -0.180902 -3.29659 
701 1 -2.98084 -0.329394 -4.59654 
37 1 -2.36205 -0.456235 -3.74359 
1834 2 -2.99477 0.423995 -3.73837 
749 1 -2.24475 -0.120398 -4.52716 
1573 2 -0.139239 -0.855201 -4.37819 
789 1 -1.48219 -0.0846603 -4.18551 
517 1 -0.955621 0.778732 -5.11842 
1456 2 1.10253 -0.591949 -3.25795 
1777 2 0.524937 -0.569883 -3.949 
866 1 2.67552 -0.835054 -3.70391 
1673 2 1.54554 -0.160861 -3.93266 
2008 2 3.02873 0.549947 -4.02228 
700 1 3.53895 -0.366884 -4.17659 
715 1 4.15678 -0.377056 -3.48493 
1953 2 3.96132 0.796083 -3.84894 
469 1 4.60687 0.032188 -4.23839 
818 1 5.48139 0.448495 -4.19931 
872 1 5.13605 -0.219177 -3.46141 
915 1 -5.52443 0.700669 -4.10457 
1377 2 -5.28965 2.07132 -4.13196 
1654 2 -5.32022 1.69699 -3.45266 
230 1 -4.78776 1.02484 -4.17704 
190 1 -4.08141 1.49778 -4.51317 
164 1 -3.48792 1.4654 -3.73286 
689 1 -3.25494 1.74677 -4.44973 
1736 2 -2.51389 1.18458 -4.81358 
489 1 -2.46086 1.79453 -4.02461 
1550 2 -2.1963 0.852931 -4.09768 
1364 2 -0.971558 1.41684 -4.1406 
397 1 -1.03773 1.69614 -2.69505 
1149 2 -1.4239 0.950685 -3.76555 
1386 2 -0.316901 1.34588 -3.5524 
1310 2 0.189052 1.87503 -4.2834 
1187 2 0.602428 1.72069 -3.52453 
80 1 -0.0321911 0.717359 -4.50849 
1021 1 0.957664 0.79625 -3.93698 
1683 2 1.08544 2.23407 -4.08461 
625 1 0.11017 0.316862 -3.81904 
615 1 -0.757503 0.228372 -4.06314 
594 1 1.80067 1.09908 -3.91302 
1172 2 4.79542 1.08785 -3.72109 
894 1 2.7235 1.59889 -3.94303 
731 1 4.12256 1.88795 -3.4287 
381 1 5.20499 2.43353 -3.64495 
1497 2 4.79318 1.5227 -4.56753 
1068 2 5.68871 1.5175 -3.83833 
1716 2 -5.20508 2.47693 -4.8715 
188 1 -5.46603 3.35258 -4.24644 
631 1 5.79032 2.87416 -4.01694 
7 1 -5.65458 2.72954 -3.24317 
1482 2 -4.29908 2.58421 -4.88693 
1877 2 -3.76747 2.39085 -3.495 
1728 2 -4.46835 2.43678 -4.05705 
1142 2 -3.48987 2.67492 -4.27293 
1625 2 -2.93462 3.23403 -4.50169 
1794 2 -2.55193 2.88603 -3.89674 
719 1 -0.813983 2.21596 -3.26286 
852 1 -0.749453 2.65253 -4.22943 
843 1 0.361532 2.93579 -4.17513 
301 1 0.728161 2.89934 -3.36114 
208 1 -0.232853 2.63794 -3.60116 
2020 2 1.4913 1.98477 -3.20988 
1999 2 2.2504 2.49211 -3.52954 
1214 2 3.18159 2.81893 -3.65709 
1522 2 3.79098 2.67699 -2.88779 
1642 2 2.96308 2.41203 -2.71007 
171 1 3.58501 1.9955 -4.17793 
1977 2 4.05134 3.12324 -3.61701 
726 1 4.97988 2.69848 -4.63466 
702 1 4.46893 2.36962 -4.1264 
1349 2 -5.80226 4.27421 -4.55875 
676 1 -4.48363 3.47465 -4.37594 
1575 2 -4.97068 4.40215 -3.99909 
446 1 -3.72924 3.55856 -3.7956 
577 1 -2.55181 4.022 -3.73937 
250 1 -3.13865 3.60991 -3.25103 
772 1 -2.45878 3.70084 -2.54594 
1476 2 -1.16342 3.13524 -2.96735 
1689 2 -1.19401 3.61356 -3.95726 
1607 2 -1.86332 3.13168 -3.6246 
56 1 0.667235 3.42502 -5.07776 
1304 2 -0.548843 3.62971 -3.35065 
1372 2 -0.0417574 4.01038 -3.90876 
709 1 1.43486 3.78209 -4.90626 
76 1 1.07294 3.40718 -4.14003 
1183 2 1.32504 4.42499 -3.65977 
884 1 2.00913 3.72874 -4.17624 
885 1 1.56882 3.28317 -3.53115 
1562 2 3.61691 3.35132 -4.49459 
394 1 3.59117 4.22295 -3.79381 
653 1 3.89204 4.67827 -4.72583 
443 1 5.03162 5.03209 -4.59125 
1439 2 4.68753 3.6526 -4.05337 
1636 2 5.69818 3.93363 -3.94751 
1413 2 -4.3521 4.85854 -4.43144 
346 1 -4.66735 5.65837 -3.92189 
993 1 -4.64223 5.34419 -2.93437 
370 1 -5.7151 4.90896 -2.74889 
473 1 -3.91899 -5.60633 -4.55898 
1038 2 -3.39594 5.33315 -4.26152 
1335 2 -3.96102 4.80243 -3.57098 
1757 2 -2.51767 5.32103 -4.26542 
1957 2 -2.69232 5.19053 -3.5542 
632 1 -1.31599 4.50927 -3.66404 
82 1 -0.710813 5.1264 -4.56914 
340 1 -0.560118 4.77675 -3.31563 
1329 2 -1.60234 5.59158 -3.78066 
568 1 -0.0950438 5.16541 -3.96056 
628 1 0.172516 5.68027 -4.86187 
564 1 0.692838 5.22471 -3.2833 
2040 2 0.722953 4.40939 -4.28889 
959 1 0.586136 5.67154 -3.97805 
1093 2 2.42558 5.27664 -4.51681 
1955 2 3.14681 5.73805 -4.88428 
1593 2 2.74553 5.04798 -3.72046 
1691 2 3.48963 5.45021 -4.08528 
1704 2 4.31659 5.89733 -4.08961 
1714 2 4.83255 5.31422 -2.5802 
662 1 5.62446 5.13212 -4.00746 
579 1 -5.39199 5.20146 -3.47632 
1425 2 4.79223 5.74605 -3.36377 
1534 2 -4.80492 -5.54139 -2.7687 
280 1 -5.70592 -4.58009 -2.80141 
1285 2 -3.96273 -4.96522 -2.89817 
1197 2 -3.13413 -4.71535 -2.91619 
1404 2 -3.59238 -5.29904 -2.04901 
1047 2 -2.648 -4.89039 -2.16581 
229 1 -1.71476 -5.84813 -1.86567 
295 1 -2.15387 -5.67995 -2.60019 
1783 2 -2.15558 -4.84937 -1.38137 
260 1 -1.79226 -5.31908 -3.47187 
934 1 -1.30795 -5.37081 -2.75867 
5 1 -0.535545 -5.20179 -2.32195 
1818 2 -0.402994 5.61538 -2.4502 
328 1 0.14843 -4.95317 -2.15436 
1082 2 1.30193 -5.29523 -3.47246 
1319 2 0.819958 -5.70751 -2.75378 
1198 2 2.76709 -4.81837 -3.12478 
1563 2 2.89361 -5.03444 -2.14991 
67 1 3.33937 5.63342 -1.62059 
1521 2 3.68896 -4.57128 -2.67273 
422 1 4.12887 -5.87163 -2.1703 
1013 1 4.76697 -5.26005 -2.80211 
153 1 5.15525 -5.4727 -1.89207 
666 1 5.50431 -4.93027 -2.55153 
1773 2 -5.60136 -5.66848 -3.03442 
1817 2 -5.77651 -3.7511 -2.34974 
864 1 -5.76278 -4.42761 -3.59133 
411 1 -4.89296 -4.36604 -2.59241 
1131 2 -5.61598 -3.91604 -1.48543 
798 1 -4.12657 -4.14307 -2.55538 
366 1 -4.03722 -4.46225 -1.58016 
1402 2 -2.12607 -4.4305 -2.76933 
313 1 -3.10599 -3.53144 -3.03158 
599 1 -1.98661 -3.18279 -2.92468 
1106 2 -1.53218 -4.64613 -1.94002 
1878 2 -0.759652 -4.10674 -2.21055 
1580 2 0.523562 -3.7254 -2.35436 
1263 2 1.0711 -3.6752 -1.59857 
107 1 1.00781 -4.64763 -2.49024 
1457 2 -0.32235 -3.61808 -2.85816 
1401 2 0.522925 -3.26564 -3.13305 
782 1 0.960233 -4.24836 -3.27374 
938 1 1.84426 -4.02773 -2.83618 
321 1 2.55835 -3.92424 -2.33135 
1001 1 2.57604 -3.71644 -3.19692 
639 1 3.21203 -3.18894 -3.3384 
1844 2 3.47958 -4.27481 -3.58062 
1767 2 5.24615 -3.91127 -2.61893 
1240 2 4.31261 -4.05263 -3.06092 
140 1 3.93354 -2.88737 -3.3784 
2002 2 5.47816 -4.24442 -1.81562 
1400 2 -5.22602 -3.17283 -3.29656 
592 1 -5.31794 -2.3086 -2.34342 
1052 2 -3.26528 -2.67907 -2.54167 
58 1 -3.65953 -1.64579 -2.48221 
1289 2 -4.14444 -2.90893 -2.91118 
388 1 -1.39368 -2.68951 -3.27137 
1086 2 -2.35282 -2.19937 -2.62201 
1391 2 -2.63871 -2.62669 -1.8315 
753 1 -1.30494 -3.16648 -2.30407 
677 1 -0.821255 -3.19699 -1.64467 
526 1 -0.731605 -2.74252 -2.76742 
211 1 0.528719 -2.45866 -2.48536 
287 1 0.85474 -1.91396 -3.26572 
581 1 1.42532 -1.95348 -2.52954 
1991 2 1.34064 -3.22085 -2.48947 
1533 2 1.98043 -2.91779 -2.851 
1123 2 2.85021 -2.46148 -2.90589 
1066 2 2.59183 -2.92073 -2.03364 
602 1 3.94163 -2.49609 -4.19601 
1973 2 3.34537 -2.69102 -1.8637 
562 1 4.68212 -3.06349 -2.48632 
968 1 -5.92445 -2.24332 -2.93258 
296 1 5.33073 -2.77351 -2.5423 
1792 2 -5.04736 -1.00983 -2.95002 
767 1 -4.53767 -1.8674 -3.15904 
1946 2 -5.67845 -1.35252 -2.23999 
917 1 -2.91816 -1.40932 -2.3057 
419 1 -2.70109 -1.04522 -3.09118 
1635 2 -1.64758 -2.04469 -2.26085 
117 1 -2.11713 -1.26206 -1.94146 
898 1 -1.95121 -0.940473 -2.59786 
1808 2 -0.796807 -1.88319 -1.95188 
1870 2 -0.748757 -1.49514 -2.78262 
1916 2 0.722264 -1.55352 -1.95265 
1819 2 -0.00770424 -1.48871 -2.41927 
427 1 1.44756 -1.65699 -3.72845 
106 1 2.27244 -1.83141 -2.22201 
125 1 2.96674 -1.35209 -2.60477 
691 1 3.02425 -1.69525 -1.82479 
1030 2 3.65877 -2.20111 -2.67994 
846 1 3.90721 -1.14004 -2.41343 
334 1 3.75288 -1.42085 -1.68812 
1167 2 5.12165 -1.80378 -2.0552 
1641 2 5.47305 -1.32604 -2.7595 
1350 2 4.68698 -1.77103 -2.73673 
32 1 -5.26568 0.537783 -3.23131 
654 1 -5.37166 -0.0821725 -2.30632 
1589 2 -4.34423 -0.825891 -2.43235 
1098 2 -2.98053 0.114441 -2.91631 
1025 2 -3.6163 -0.811597 -1.68302 
824 1 -4.60831 0.374627 -2.69169 
1436 2 -2.05335 0.478232 -3.27566 
1206 2 -2.25572 -0.0142511 -2.49066 
1432 2 -3.44469 -0.436796 -2.51634 
1761 2 -1.36801 0.420351 -2.4193 
234 1 -1.66675 -0.500096 -3.35173 
59 1 -1.31919 -0.963606 -1.75237 
2022 2 -0.435275 0.659144 -2.00119 
799 1 -0.986278 -0.554096 -2.38714 
630 1 -0.183736 -0.141423 -3.06061 
499 1 -0.900252 -0.33805 -3.353 
1517 2 0.476625 -1.072 -2.84513 
963 1 0.541885 0.303893 -2.92639 
464 1 1.37598 0.73428 -3.25485 
1832 2 1.93429 -0.464567 -2.95269 
2027 2 1.27381 -0.97285 -2.28516 
1502 2 2.51859 0.136731 -3.44617 
1696 2 2.87611 -0.207563 -2.53589 
886 1 1.91194 0.546289 -2.5531 
241 1 4.93264 -0.815149 -1.95791 
2030 2 4.6058 0.402581 -2.14109 
1320 2 3.37601 0.317778 -3.07318 
109 1 4.50973 -0.558126 -2.72833 
297 1 5.40974 -0.325196 -2.68956 
518 1 5.89476 -0.489735 -1.92731 
1986 2 -5.05803 1.42747 -2.57025 
278 1 -4.31726 0.921127 -3.48396 
900 1 -3.51221 0.998985 -2.85695 
1720 2 -4.27532 1.79789 -2.50586 
613 1 -2.79111 1.52443 -3.32911 
189 1 -2.25055 1.21455 -2.60823 
686 1 -1.79355 1.74067 -3.25559 
585 1 -0.339216 2.01417 -2.29751 
259 1 -1.65821 1.29898 -2.1082 
1297 2 0.38298 0.916791 -1.91786 
1104 2 -0.844682 0.680938 -3.02533 
1893 2 0.0234666 1.10627 -2.74075 
115 1 -0.743315 1.59287 -1.63639 
1838 2 0.964643 1.49948 -2.58425 
1340 2 2.18145 2.08911 -2.70829 
50 1 2.34525 1.14485 -3.0988 
232 1 3.7314 1.46654 -2.62257 
874 1 3.26832 1.38536 -3.33091 
1952 2 4.28016 0.514594 -2.99967 
1858 2 -5.91454 1.12223 -2.75435 
1861 2 5.15979 0.858214 -2.94929 
944 1 4.86049 1.8578 -2.9327 
1803 2 -5.70091 0.902038 -1.97272 
194 1 5.47022 1.71892 -2.01628 
69 1 -4.98874 3.20165 -3.68871 
926 1 -4.86271 2.82961 -2.71603 
1132 2 -4.45292 1.89341 -3.38051 
1512 2 -3.50457 2.22019 -2.67534 
276 1 -4.19704 2.87982 -2.02888 
1485 2 -2.98507 2.46179 -3.26003 
1938 2 -2.52491 2.21799 -2.3517 
26 1 -2.72671 3.19535 -1.78767 
1415 2 -2.122 2.68274 -2.92604 
1959 2 -1.4317 2.66157 -2.30065 
134 1 0.196665 2.50524 -2.87442 
1756 2 -0.177223 3.44794 -2.53276 
910 1 0.739024 2.42285 -2.17291 
1679 2 0.360621 3.34273 -1.88706 
240 1 1.31089 2.79889 -2.67304 
937 1 2.03337 2.96001 -2.17355 
478 1 2.24523 3.33221 -2.9407 
1461 2 3.96673 2.33402 -2.00901 
1967 2 3.04736 2.21839 -1.95503 
1330 2 4.75561 2.64356 -1.87715 
1866 2 3.51558 1.75388 -1.36411 
811 1 5.79622 2.1617 -2.68343 
1026 2 4.81448 2.90471 -2.68838 
1825 2 5.5042 3.06451 -2.16653 
1971 2 -5.45445 3.93614 -3.24848 
1669 2 -4.8877 3.91564 -2.71731 
1278 2 -5.48936 3.4856 -2.12663 
1275 2 -4.48765 4.30894 -3.32772 
369 1 -4.18773 3.17431 -3.08095 
1287 2 -4.02028 4.17905 -2.57034 
989 1 -3.32294 3.25032 -2.40626 
733 1 -1.71646 3.86971 -2.27829 
1601 2 -2.49611 4.79335 -2.5915 
17 1 -1.95657 4.18252 -3.22381 
612 1 -1.12958 4.2243 -2.80084 
1616 2 0.5432 3.89188 -3.2728 
1071 2 2.06821 4.62611 -3.62009 
1499 2 1.44379 4.21477 -2.76883 
1981 2 0.914477 3.74313 -2.463 
896 1 2.89559 3.5456 -2.5346 
1042 2 2.42387 4.60256 -2.80336 
34 1 2.715 3.82484 -3.49688 
835 1 4.39133 4.67578 -3.97843 
448 1 3.53143 3.89275 -2.98863 
1333 2 5.65811 3.50391 -2.84648 
1994 2 5.00353 3.42351 -3.37052 
775 1 4.5051 4.19488 -2.98572 
262 1 4.79565 3.85477 -2.10223 
166 1 5.35234 4.42057 -2.47142 
952 1 -5.00481 4.94309 -2.14567 
1918 2 -5.36803 5.99312 -2.14264 
255 1 -4.07672 -5.81827 -3.58823 
589 1 -4.00771 5.21429 -2.09126 
1236 2 -1.97222 5.32893 -2.99373 
342 1 -3.81416 5.73991 -2.81723 
1325 2 -3.30444 4.75109 -2.97106 
1339 2 -1.38437 5.14393 -2.43168 
1571 2 -1.12476 5.63309 -3.04535 
954 1 -1.49542 5.8296 -1.03655 
86 1 0.252952 4.77337 -2.90327 
1543 2 -0.773228 5.08714 -1.91575 
1503 2 0.386691 5.67937 -1.99146 
652 1 1.49378 5.33645 -2.77942 
442 1 1.585 5.56013 -3.71807 
425 1 2.34293 5.73064 -3.15621 
487 1 3.18285 -5.92157 -2.64327 
1612 2 3.90396 5.37107 -3.30217 
1090 2 4.05021 4.94409 -2.4227 
918 1 5.2759 4.77175 -3.37735 
1489 2 5.61657 5.86935 -2.56202 
2000 2 5.51485 5.30728 -1.68782 
182 1 -4.85171 -4.70485 -1.75073 
988 1 -5.30031 -5.2596 -1.07786 
1822 2 -3.86172 -5.76126 -1.06985 
724 1 -4.2971 -4.79806 -0.660284 
1122 2 -4.37334 -5.59119 -1.91528 
1454 2 -3.07267 -5.28305 -1.37022 
1815 2 -3.3558 -5.85201 -0.249456 
1802 2 -2.49108 -5.29656 -0.71832 
337 1 -0.817848 -5.53734 -1.45609 
1613 2 -0.961362 -4.51055 -1.30503 
1843 2 -1.67608 -4.89851 -0.886367 
678 1 -1.03077 5.69483 -0.194448 
147 1 0.066884 -5.33613 -1.43406 
459 1 -0.442772 -5.87868 -0.736853 
661 1 0.976769 -4.77261 -1.44384 
1887 2 2.01862 -5.14901 -2.67875 
2019 2 3.15389 -5.29449 -1.23355 
1859 2 3.95314 -5.0216 -0.955671 
1194 2 4.50988 -5.02227 -0.365953 
1765 2 3.70374 -4.95071 -1.81605 
452 1 -5.7798 -5.06088 -1.92596 
2017 2 4.63041 -4.61298 -1.20228 
456 1 5.67498 -5.58327 -1.23924 
65 1 -5.93362 -5.79363 -0.298588 
1545 2 -4.8788 -3.25045 -2.48157 
1217 2 -4.92414 -3.62091 -1.74213 
504 1 -3.30744 -3.93346 -2.19373 
1387 2 -4.1349 -3.48129 -1.1984 
1948 2 -4.16748 -3.17575 -2.02164 
1857 2 -4.15697 -3.83219 -0.236714 
246 1 -2.60731 -3.58273 -2.30463 
21 1 -2.92704 -4.0675 -1.47284 
441 1 -3.26951 -4.49636 -0.815747 
1896 2 0.0341466 -3.97182 -1.63635 
71 1 -2.0317 -3.55572 -1.61121 
844 1 -2.28713 -4.08701 -0.786716 
986 1 -1.15643 -3.5903 -0.966195 
1753 2 0.434441 -4.1129 -0.835249 
703 1 -0.464539 -3.17768 -0.806482 
20 1 1.69237 -4.37815 -2.03154 
1894 2 1.3957 -3.89314 -0.632868 
1738 2 1.93038 -3.44801 -1.75329 
914 1 3.34033 -3.73203 -2.37002 
550 1 2.73707 -4.22665 -1.54172 
137 1 3.42688 -3.92833 -1.48902 
1985 2 2.04641 -3.93837 0.00453866 
754 1 3.94553 -3.29005 -2.60796 
928 1 4.09515 -3.57315 -1.71469 
1530 2 4.44749 -4.56823 -2.08395 
1471 2 5.33634 -4.55295 -0.936914 
311 1 4.90316 -3.34311 -1.77811 
636 1 5.82699 -2.85862 -1.91034 
275 1 -4.89103 -2.46223 -1.56457 
734 1 -5.4466 -3.07381 -0.846878 
219 1 -4.39812 -2.57382 -0.835745 
285 1 -4.47654 -2.13843 -2.38096 
532 1 -3.89392 -2.01336 -1.56108 
1505 2 -3.45404 -2.96844 -1.65784 
1449 2 -2.63523 -2.93559 -0.98445 
1442 2 -3.37819 -3.4104 -0.81662 
1113 2 -1.85313 -2.7474 -0.698478 
1069 2 -1.76074 -2.55639 -1.59547 
1796 2 -1.06834 -2.1865 -1.10518 
1801 2 -0.769175 -2.42775 -0.283948 
566 1 -0.119365 -2.90449 -2.0622 
659 1 0.290199 -2.98084 -1.40123 
1143 2 -0.171772 -2.09099 -0.830145 
215 1 1.2712 -2.78884 -0.968876 
705 1 0.954237 -2.50282 -1.79786 
1947 2 2.76897 -3.10937 -1.3093 
839 1 2.06879 -2.44006 -0.749159 
1923 2 2.03045 -3.60355 -0.963449 
1279 2 4.32903 -2.16923 -2.19914 
1698 2 4.20347 -2.50615 -1.34947 
1028 2 4.36227 -2.58803 -0.461532 
213 1 5.35439 -3.17535 -1.16834 
1978 2 4.95915 -2.2494 -1.28909 
314 1 5.62901 -3.46677 -0.498657 
1587 2 5.79672 -1.80674 -1.67354 
1972 2 -4.79087 -1.29678 -1.83636 
1299 2 -5.31417 -1.54179 -1.21023 
1940 2 -4.19229 -1.16339 -1.20901 
1128 2 -3.1639 -0.770543 -0.899843 
449 1 -2.96376 -1.66367 -1.54125 
722 1 -2.68158 -1.87996 -0.760331 
548 1 -2.06988 -1.55632 -1.17836 
948 1 -1.65772 -1.59553 -0.386674 
683 1 -1.10423 -1.18432 -1.01657 
1057 2 0.0287524 -1.70768 -1.60554 
468 1 -0.532945 -0.756965 -1.60575 
2046 2 0.923106 -1.67575 -1.14695 
1360 2 1.56104 -1.27021 -1.4899 
1897 2 2.36454 -1.10426 -0.918886 
1831 2 1.59164 -1.58898 -0.577649 
377 1 1.84214 -2.26703 -1.72771 
199 1 2.55733 -2.00777 -1.28002 
1568 2 2.25235 -0.826109 -1.97083 
1076 2 3.13646 -0.710473 -1.00757 
626 1 3.63691 -1.60351 -0.851235 
867 1 4.49509 -1.32341 -1.45396 
198 1 4.45907 -1.42565 -0.653997 
1990 2 5.94495 -2.09638 -0.845625 
279 1 5.35417 -0.931907 -1.18761 
168 1 5.2277 -1.15815 -0.398384 
222 1 4.90499 -1.6669 0.33954 
876 1 -5.28286 -0.39369 -1.35504 
912 1 -4.56366 0.0112781 -1.88171 
921 1 -3.86591 0.567171 -2.08742 
472 1 -3.95356 0.145108 -1.21867 
1507 2 -2.84202 -0.260477 -1.81403 
307 1 -3.19569 0.56545 -1.3885 
2043 2 -1.91826 -0.0349971 -1.62492 
1323 2 -1.49393 -0.290731 -0.722757 
1067 2 -1.018 0.160547 -1.4 
160 1 0.536024 -0.286802 -1.6732 
447 1 -0.11693 -0.289107 -2.19069 
1213 2 -0.0556421 0.463665 -1.20739 
1735 2 -0.45721 -0.126852 -0.586072 
776 1 1.07753 0.110876 -2.26162 
121 1 1.90814 0.162213 -1.79193 
721 1 1.27376 -0.193841 -1.19893 
1314 2 3.04673 -0.448808 -1.66917 
243 1 2.94121 0.706392 -1.66538 
1758 2 4.00086 -0.197328 -1.3732 
1680 2 3.72592 -0.0992244 -2.20696 
783 1 4.36264 0.85579 -1.15569 
1564 2 4.96624 -0.0184765 -1.18136 
1220 2 5.4205 0.591994 -2.03995 
1468 2 5.81229 0.129354 -0.398656 
1724 2 -4.77365 1.05025 -1.52247 
1508 2 5.8218 0.350226 -1.26555 
351 1 -5.27556 1.9589 -1.29383 
1282 2 -4.06564 1.49842 -1.75439 
2038 2 -4.19648 1.11781 -0.790384 
1520 2 -3.09926 1.83644 -1.82789 
94 1 -2.85172 0.883812 -2.1921 
192 1 -2.26438 0.896732 -1.38094 
1229 2 -3.25123 1.48168 -0.851879 
919 1 -1.30665 1.16158 -0.96184 
608 1 0.172497 1.94573 -1.54364 
1860 2 1.12812 1.06686 -1.70681 
660 1 -0.287081 1.51988 -0.920931 
1944 2 1.71574 1.5296 -2.13136 
1726 2 1.89182 1.18029 -1.20912 
1215 2 0.961249 0.754203 -0.954261 
823 1 1.22474 2.11515 -1.26075 
90 1 2.88508 1.08457 -2.46874 
1158 2 2.38453 1.71031 -1.70609 
1681 2 2.03097 0.947192 -0.444569 
104 1 3.73172 0.926559 -1.81359 
1017 1 4.58022 1.55008 -2.32628 
110 1 4.88287 1.39588 -1.53668 
516 1 -5.39588 2.42441 -2.11645 
761 1 5.86873 1.65422 -1.25605 
1399 2 -4.73645 2.98695 -0.369366 
966 1 -4.58662 2.30037 -1.66516 
298 1 -4.65447 1.85031 -0.330555 
879 1 -4.02478 2.21243 -0.979411 
1776 2 -2.42738 1.90225 -1.07593 
460 1 -2.39668 2.97259 -1.0277 
323 1 -3.4333 2.77005 -1.35992 
1839 2 -1.90497 2.17948 -1.58452 
2021 2 -0.564955 3.0508 -1.99657 
1092 2 -1.08695 2.52531 -1.30503 
1968 2 1.36065 3.59827 -1.6331 
1247 2 -0.129357 2.94747 -1.38917 
143 1 2.14028 2.59051 -1.32348 
945 1 1.52836 2.46277 -1.8283 
828 1 2.83084 3.11641 -1.77334 
183 1 3.24849 2.71982 -0.987588 
114 1 2.43118 2.36595 -0.556227 
1874 2 2.83188 1.46174 -0.771151 
1368 2 4.39835 2.07372 -1.06583 
1527 2 5.9869 3.16847 -1.40704 
1328 2 5.26201 2.73852 -1.31364 
1276 2 5.93228 2.5743 -0.623986 
1105 2 -5.1336 3.16581 -1.15513 
355 1 -5.7359 4.41581 -1.85177 
582 1 5.40117 4.04545 -1.48972 
974 1 -5.24618 4.33079 -1.05952 
1419 2 -4.48371 3.78263 -1.72693 
1853 2 -3.49825 3.92305 -1.37546 
520 1 -1.91666 3.52678 -1.60589 
1992 2 -3.36563 4.29809 -2.0858 
1348 2 -2.66159 4.43348 -1.68374 
720 1 -0.873551 3.99288 -1.6965 
1023 1 -1.3536 3.43099 -0.992187 
418 1 -0.593847 3.76252 -0.848581 
1646 2 -1.32672 4.88315 -1.26615 
836 1 0.728943 4.8179 -2.29772 
111 1 -0.255054 4.3999 -2.30653 
361 1 0.0834751 4.17006 -1.28588 
736 1 1.5794 5.16592 -1.84672 
1997 2 1.91019 4.28509 -2.1467 
1428 2 1.95494 3.46026 -0.761123 
43 1 1.40276 4.27905 -0.456134 
1854 2 2.40058 4.02257 -1.42007 
1764 2 2.95715 4.47862 -2.04576 
1868 2 3.47117 4.4003 -1.30326 
510 1 3.57687 3.34901 -1.53857 
181 1 4.04147 3.02356 -0.793617 
1178 2 4.10782 4.54026 -1.75734 
552 1 4.0533 3.51026 -2.19017 
432 1 4.48614 3.57836 -1.17386 
1362 2 -4.71183 5.78837 -1.29727 
961 1 -4.49863 4.83093 -1.34261 
1351 2 -4.34561 5.56737 -0.34213 
679 1 -3.79625 4.88971 -0.991296 
203 1 -3.33344 5.31972 -1.70707 
119 1 -2.92898 5.72336 -2.23266 
158 1 -2.86664 5.25576 -0.93339 