ITEM: TIMESTEP
11700
ITEM: NUMBER OF ATOMS
2048
ITEM: BOX BOUNDS pp pp pp
-5.9414982225491668e+00 5.9414982225491668e+00
-5.9414982225491668e+00 5.9414982225491668e+00
-5.9414982225491668e+00 5.9414982225491668e+00
ITEM: ATOMS id type x y z 
1192 2 5.81402 -5.28646 -4.63236 
435 1 -5.58004 5.94483 -5.20948 
412 1 -4.78239 -5.32465 -5.91868 
825 1 -4.73946 -5.77245 -5.00627 
554 1 -3.97521 -5.25768 -5.29639 
91 1 -3.07269 -5.04587 -5.28527 
508 1 -2.57396 -5.21981 -3.92754 
247 1 -1.78052 -4.51895 -5.32611 
1291 2 -0.843901 -5.44876 -5.22723 
1035 2 -0.141477 -4.94367 -5.57522 
1429 2 0.576633 -4.99349 -4.97263 
1694 2 0.283584 -4.33857 5.68166 
648 1 2.22501 -5.45783 -4.90891 
503 1 0.858632 5.89274 -5.25808 
673 1 1.50118 5.97872 -4.67915 
723 1 2.15968 -5.07898 5.88042 
49 1 2.79842 -5.08477 -5.39915 
1244 2 4.53669 -5.44313 -5.73499 
857 1 2.74199 -4.49847 5.24967 
1272 2 5.41039 -5.80235 -3.95389 
1799 2 5.45862 -5.09373 -5.55429 
1633 2 -4.85435 -4.49275 -5.2879 
511 1 -5.6558 -3.49477 -5.59314 
373 1 -5.6941 -3.84471 -4.42473 
991 1 -5.17735 -3.49946 -4.93303 
1548 2 -3.35368 -4.11979 -4.71692 
1663 2 -4.05642 -4.10385 -5.5087 
2016 2 -4.36227 -4.50655 -4.60313 
1261 2 -3.08958 -3.70842 -5.47976 
2009 2 -2.34529 -3.41717 -5.18655 
855 1 -1.15368 -4.28752 -4.82718 
1581 2 -1.65099 -3.51058 -4.52973 
416 1 -0.488292 -3.99486 -5.48269 
227 1 -0.032831 -4.09488 -4.75176 
819 1 0.621314 -3.62296 -5.31676 
1746 2 0.852339 -4.55022 -5.6427 
1790 2 1.63807 -4.34535 -5.56026 
1709 2 1.44262 -4.65816 -4.7855 
1737 2 2.49825 -4.08153 -4.85062 
1902 2 3.1244 -3.69966 -5.24171 
64 1 3.43504 -4.66317 -5.72227 
1995 2 4.58115 -3.03028 -5.16523 
1475 2 4.20457 -3.51013 -4.55756 
19 1 4.23619 -4.4135 -5.61391 
223 1 5.62779 -3.9891 -5.16799 
1588 2 -5.35653 -2.05245 -5.67935 
1243 2 -4.63486 -2.31899 -4.91896 
269 1 -3.74908 -2.74147 -5.81785 
1341 2 -4.34944 -1.92056 -5.40118 
353 1 -4.34785 -3.27163 -5.15823 
402 1 -3.28151 -2.17363 5.64011 
196 1 -2.82964 -2.83485 -4.29724 
664 1 -3.01074 -2.62459 -5.40087 
1711 2 -1.58692 -2.99509 -5.61726 
151 1 -2.25865 -2.37762 -4.99496 
1379 2 -0.892702 -3.09482 -4.96632 
1255 2 -0.26023 -2.55413 -5.52012 
1763 2 0.145434 -2.75275 -4.79209 
202 1 0.919122 -3.08954 5.86645 
1525 2 0.856247 -2.37708 -5.00712 
136 1 1.41982 -3.36984 -5.1295 
1820 2 1.41118 -1.73554 -5.84329 
939 1 2.02853 -2.76372 -5.58899 
169 1 2.55354 -2.38378 5.48265 
694 1 2.93576 -2.31948 -5.73113 
475 1 3.73773 -2.04724 5.91612 
485 1 3.57625 -2.43608 -5.03974 
1070 2 3.84104 -3.31367 -5.56394 
609 1 4.80915 -1.50809 5.86552 
1465 2 5.52812 -2.67619 -5.38588 
904 1 4.44346 -2.05121 -5.36176 
2032 2 4.89187 -2.51001 5.72236 
543 1 -5.60619 -1.40153 -5.1515 
833 1 -4.70894 -1.1153 -4.86207 
214 1 -3.97622 -0.863339 -4.41443 
1733 2 -2.9382 -1.3387 -5.69122 
1809 2 -2.2999 -1.17272 -5.2019 
1271 2 -2.84552 -1.54028 -4.72883 
1908 2 -1.49137 -1.03743 -4.68629 
1478 2 -1.12528 -0.559374 -5.35314 
387 1 -2.51745 -2.16181 -5.86956 
35 1 -1.49221 -2.13425 -5.12841 
367 1 -0.0324813 -1.47124 -5.38801 
830 1 -0.728703 -1.72146 -4.99156 
768 1 1.34909 -0.934183 -5.09072 
1190 2 1.79672 -1.97143 -5.09023 
8 1 0.384752 -1.29425 -4.71515 
1964 2 2.406 -1.43686 -5.68791 
1775 2 2.88109 -1.34699 -4.98927 
1224 2 3.44613 -1.1561 -5.56606 
1332 2 4.38798 -0.658142 -5.56135 
771 1 5.67662 -1.23029 -5.88594 
740 1 5.33044 -1.74133 -5.00498 
1623 2 4.86952 -0.930255 -4.58333 
1498 2 -5.78845 0.0636755 -5.7652 
1346 2 -5.20697 -0.152181 -4.91994 
505 1 -3.72033 -0.637535 -5.34926 
2028 2 -4.58928 0.241105 -5.46559 
932 1 -4.56349 -0.788344 -5.67418 
55 1 -3.89733 -0.171131 5.72801 
374 1 -2.29411 0.19322 -5.54474 
451 1 -3.16359 -0.113635 -5.64128 
1414 2 -0.664123 -0.217829 -5.78839 
212 1 -1.67101 0.663081 -5.92492 
827 1 -1.53225 0.367196 -5.00727 
1572 2 -0.204562 -0.434341 -5.06505 
1171 2 0.372028 0.170822 -5.60607 
1223 2 1.41824 0.115392 -4.7566 
1975 2 0.671524 -0.15751 -4.84777 
31 1 2.12666 -0.673693 -5.29056 
195 1 3.08155 -0.236691 -5.3248 
758 1 3.6189 0.226183 -5.88973 
299 1 4.10752 0.213205 -5.01336 
60 1 4.45661 0.585758 -5.79991 
1830 2 5.90516 -0.457794 -4.94756 
1634 2 5.19095 -0.485567 -5.44293 
302 1 5.05631 0.623888 -4.97636 
656 1 -5.58779 1.28798 -5.55286 
338 1 -5.01534 1.11217 -4.98044 
1184 2 -4.09435 0.296937 -4.788 
752 1 -4.39391 1.67816 -5.40358 
697 1 -3.55665 1.77593 -5.01422 
1343 2 -3.79789 0.787557 -5.50885 
1643 2 -3.18348 0.66117 -4.58456 
903 1 -2.44966 2.33701 -4.90857 
1256 2 -2.98947 1.09817 -5.39248 
1443 2 -1.89558 1.64588 -5.5658 
1050 2 -1.06306 1.86399 -5.47403 
1054 2 -1.51071 1.37697 -4.69957 
1063 2 -0.492945 1.8275 -4.74761 
829 1 -0.946508 0.818277 5.78365 
842 1 -0.295077 1.14483 -5.5706 
408 1 0.459843 1.29464 -5.32384 
254 1 1.01023 1.11041 -4.75645 
380 1 1.53423 1.6893 -5.478 
1470 2 2.82001 0.849173 -5.34499 
1412 2 2.45506 0.410851 -4.4099 
760 1 1.85362 1.39266 -4.7275 
1910 2 3.28546 0.683934 -4.51902 
1845 2 3.63771 1.2839 -5.39624 
420 1 -5.79865 0.720182 -4.72967 
1204 2 4.17464 1.224 -4.64176 
1396 2 5.13786 1.8273 -5.33754 
1403 2 -5.88557 2.28935 -5.57793 
204 1 5.89366 3.05865 -4.92825 
1620 2 -5.01212 2.72563 -5.64165 
1869 2 -4.15899 3.00771 5.86129 
980 1 -3.95292 2.02154 5.57876 
820 1 -3.18968 2.09613 -5.66219 
1015 1 -1.73718 2.28616 -4.11771 
1175 2 -3.44636 3.12225 -5.36868 
494 1 -2.2079 2.63103 -5.76202 
710 1 -0.94547 2.95534 -5.64726 
982 1 -1.47018 2.68684 -5.0111 
1639 2 -0.819767 2.11725 5.56529 
1884 2 -0.0905601 2.22417 -5.53599 
1506 2 0.847319 2.62591 -5.58516 
310 1 -0.359357 3.14694 -5.01638 
1628 2 1.68045 2.76664 -4.9871 
1653 2 0.775945 2.17671 -4.73402 
895 1 2.35405 2.14428 -5.70131 
1979 2 2.50169 3.26695 -5.57104 
1769 2 1.93249 2.32932 -4.21895 
2039 2 2.54529 2.8682 -4.65707 
1011 1 2.69124 1.88423 -4.94422 
621 1 3.49146 2.18748 -5.00532 
1431 2 5.88822 1.91458 -4.75803 
396 1 4.32705 2.4559 -5.11154 
178 1 5.09593 3.15269 -5.48688 
923 1 -5.23676 3.52814 -5.05068 
644 1 -5.79401 3.53611 -5.67926 
797 1 -3.87415 4.24167 -5.68271 
45 1 -4.57624 3.99453 -5.4416 
509 1 -3.13359 4.88518 5.61172 
92 1 -3.922 3.89931 -4.887 
1824 2 -2.29444 3.77233 -5.40882 
755 1 -2.98985 4.16077 -4.65067 
1161 2 -1.43404 4.00566 -5.234 
1268 2 -1.7215 3.51459 -4.66216 
1336 2 -2.01678 4.16611 5.76813 
1926 2 -0.778791 3.99149 -4.69869 
561 1 0.00722 3.66328 -5.87917 
815 1 0.850326 3.65307 -5.43043 
415 1 2.63317 4.47416 -5.88303 
72 1 1.69634 4.10188 -5.76262 
716 1 2.40294 4.14526 -5.01593 
777 1 3.3049 4.55779 -5.15501 
1274 2 3.25525 3.36674 -5.32245 
1342 2 3.74184 3.77935 -5.81994 
256 1 3.06333 4.09455 -4.38231 
1618 2 4.25037 3.58023 -4.92317 
1779 2 4.78363 4.21798 -5.47604 
1073 2 5.39805 4.08365 -4.82917 
1640 2 5.86804 4.59873 -5.40086 
1048 2 -4.9892 4.79534 -4.91878 
699 1 -5.60105 5.42823 -4.45353 
1353 2 -3.71385 5.34608 -5.20019 
1539 2 -3.46596 5.83903 -5.9252 
1088 2 -4.40088 5.16489 -5.45621 
1542 2 -1.84042 -5.87882 -4.73901 
1526 2 -2.95811 5.65842 -4.963 
729 1 -3.04661 4.58034 -5.54892 
1365 2 -2.60343 -5.84647 -5.63376 
687 1 -1.99261 4.59206 -4.37873 
221 1 -1.47024 4.97532 -4.8605 
495 1 0.0787341 5.91065 -5.54082 
123 1 -0.464541 5.43636 -5.23062 
1354 2 -0.0941939 4.51076 -5.15542 
1039 2 0.780859 4.57454 -5.19512 
1033 2 1.46977 5.02349 -5.43502 
1668 2 1.76555 4.81968 -4.65645 
946 1 3.94341 4.97181 -5.57777 
1193 2 1.90278 5.51112 5.89904 
1846 2 3.09513 5.78378 -5.68351 
1847 2 2.46936 5.38192 -5.24415 
501 1 4.67556 5.08664 -5.17514 
1667 2 4.05471 -5.87784 -5.1944 
1002 1 -5.92627 -5.81228 5.87502 
407 1 5.45924 5.42868 -4.96053 
318 1 5.23595 5.56972 -5.78054 
1358 2 -5.66368 -5.52611 -3.84193 
1312 2 -4.89711 -5.22998 -3.56155 
333 1 -3.22757 -5.27002 -4.50096 
1394 2 -4.19658 -4.8736 -3.84544 
14 1 -3.41891 -5.742 -3.80561 
1079 2 -3.35512 -4.46637 -4.02867 
1418 2 -5.10411 -4.94422 -4.48006 
1008 1 -3.02575 -5.84783 -3.06586 
805 1 -2.24465 -4.85285 -4.72078 
274 1 -1.51537 -4.8981 -4.09108 
453 1 -0.901195 -4.873 -3.38038 
1151 2 -0.98044 -5.71046 -4.47821 
1029 2 -0.406529 -5.92476 -3.66293 
1334 2 -0.112145 -5.39657 -4.5011 
1260 2 0.362839 -5.63323 -3.87905 
1338 2 0.203937 -5.79041 -2.97875 
1486 2 1.01354 -5.07308 -4.07427 
575 1 2.10305 -5.88872 -3.9346 
1592 2 1.82189 -5.1109 -3.396 
667 1 2.84966 -5.49768 -4.37658 
180 1 2.9737 -5.83484 -3.56124 
809 1 4.21116 -4.86873 -4.71552 
57 1 3.38755 -5.1831 -4.82811 
131 1 3.681 -5.45343 -3.90752 
955 1 3.66965 -5.67715 -2.88043 
1875 2 5.067 -5.47706 -4.84456 
1604 2 5.60938 5.93073 -3.07544 
847 1 4.65289 -5.01318 -3.87463 
273 1 -4.44171 -3.61179 -4.24705 
878 1 -4.77087 -4.19857 -3.3786 
218 1 -3.63122 -3.15609 -4.76945 
483 1 -4.03761 -3.75239 -3.43386 
1477 2 -2.51927 -3.95352 -4.46615 
1807 2 -2.71857 -4.16051 -3.5009 
1452 2 -1.88487 -4.01718 -3.84509 
902 1 -0.641068 -4.53504 -4.1822 
1280 2 -1.47099 -3.93943 -3.04361 
1848 2 -1.00717 -3.58298 -3.81016 
467 1 0.277133 -4.3747 -3.96691 
326 1 -0.0442683 -4.65485 -3.32314 
413 1 0.946174 -3.77265 -4.50905 
122 1 1.60483 -3.79597 -3.80056 
1836 2 2.82034 -4.48934 -4.04101 
1678 2 2.05136 -4.61617 -4.24208 
403 1 2.40405 -3.3655 -3.83676 
1129 2 3.45443 -4.21248 -4.56734 
2010 2 4.16052 -3.97218 -3.7745 
1655 2 5.06991 -3.64222 -3.73409 
496 1 4.77073 -4.33289 -5.02544 
339 1 5.39594 -4.38385 -4.26139 
1201 2 -5.71718 -3.42909 -3.06476 
284 1 5.45671 -4.9075 -3.30922 
1937 2 -5.59934 -2.59584 -5.03534 
291 1 -5.29308 -1.89574 -3.46816 
1664 2 -4.99441 -2.5275 -4.22373 
524 1 -3.39074 -3.35112 -3.81479 
1911 2 -3.92797 -2.30137 -4.30112 
2007 2 -3.45039 -2.3431 -3.35624 
1924 2 -4.15475 -2.56056 -3.55592 
236 1 -2.62713 -3.10236 -3.37595 
657 1 -1.86146 -2.61075 -4.10193 
573 1 -0.984608 -2.43663 -3.67933 
597 1 -1.0642 -2.22689 -4.47431 
1006 1 -0.272151 -1.88804 -4.283 
1370 2 -0.420597 -3.10117 -4.29513 
1645 2 -0.0088633 -3.46139 -3.5951 
998 1 -0.255393 -2.41972 -3.29895 
1555 2 0.608674 -2.88649 -4.10128 
1083 2 1.39698 -2.4176 -4.23582 
1982 2 1.21817 -2.83406 -3.42913 
1676 2 2.10513 -2.29849 -3.66741 
277 1 2.66844 -2.74261 -4.90446 
1259 2 2.41139 -1.88349 -4.45953 
547 1 2.00041 -3.24452 -4.6037 
999 1 4.91019 -2.25866 -4.3585 
471 1 3.21925 -3.17188 -4.15245 
1657 2 5.33987 -3.14112 -4.7379 
1871 2 -5.82641 -3.01768 -4.06737 
784 1 5.00384 -2.55054 -3.4966 
66 1 5.73581 -2.18465 -3.79396 
161 1 -5.11846 -1.52284 -4.2983 
205 1 -5.9534 -1.73277 -4.39947 
1745 2 -3.57824 -1.82396 -4.97532 
717 1 -4.3345 -1.45494 -3.81318 
848 1 -3.48276 -1.22764 -3.0523 
704 1 -3.45257 -0.930497 -3.86953 
1097 2 -3.13649 -1.84561 -3.99008 
1682 2 -2.47903 -2.00591 -3.38747 
1867 2 -1.99651 -1.55885 -4.09883 
1781 2 -1.57241 -1.73522 -3.20581 
1537 2 -1.09792 -1.22336 -3.86322 
1644 2 -0.323958 -1.04228 -3.48297 
1296 2 -0.62856 -0.800008 -4.36737 
11 1 0.438305 -1.75778 -3.78019 
421 1 1.15804 -1.30686 -4.24388 
674 1 2.04121 -0.989049 -4.08395 
560 1 2.61797 -0.562681 -4.61584 
640 1 2.3037 -1.28817 -3.15571 
2036 2 4.04585 -1.22919 -4.8608 
1326 2 3.02493 -2.11018 -3.68979 
1363 2 3.38495 -1.72162 -4.48103 
2048 2 3.7652 -1.66319 -3.69898 
116 1 3.88774 -0.68416 -3.25059 
2001 2 5.60834 -0.675614 -4.0604 
1110 2 5.2707 -1.40767 -3.53397 
1163 2 4.547 -1.41663 -4.09516 
1754 2 -5.41621 -0.571681 -4.07651 
692 1 5.85023 0.111834 -3.08887 
2035 2 -4.63721 -0.361637 -3.50533 
1826 2 -5.8277 -1.06737 -3.18204 
1111 2 -3.54414 0.245188 -3.91457 
1962 2 -4.57362 -0.0709544 -4.2672 
1876 2 -3.85322 -0.294686 -3.14926 
701 1 -3.03556 -0.458951 -4.66695 
37 1 -2.57021 -0.66372 -3.95167 
1834 2 -2.5587 0.605333 -3.81169 
749 1 -2.19552 -0.121902 -4.64126 
1573 2 0.0894106 -0.55251 -4.04327 
789 1 -1.31596 0.0586838 -4.28257 
517 1 -0.782043 0.694339 -4.97679 
1456 2 1.25874 -0.509911 -3.14037 
1777 2 0.952176 -0.315777 -3.95316 
866 1 3.09167 -0.846356 -3.73937 
1673 2 1.83298 -0.0655088 -3.89693 
2008 2 3.1208 0.545216 -3.69706 
700 1 3.62368 -0.425817 -4.4565 
715 1 4.24089 -0.422999 -3.92311 
1953 2 4.0743 0.896835 -3.79723 
469 1 4.66413 0.143062 -4.29056 
818 1 5.44772 0.473388 -4.18245 
872 1 5.11548 -0.0158366 -3.39387 
915 1 -5.52046 0.314729 -3.5631 
1377 2 -5.42007 1.93302 -4.1346 
1654 2 -5.41062 1.48992 -3.37747 
230 1 -4.81736 0.855891 -4.06806 
190 1 -4.13653 1.38714 -4.50386 
164 1 -3.38384 1.42278 -3.89779 
689 1 -3.0625 1.97453 -4.36972 
1736 2 -2.36309 1.06674 -4.64855 
489 1 -2.49006 1.80685 -3.73995 
1550 2 -1.74871 1.02079 -3.92227 
1364 2 -0.975984 1.36405 -4.0216 
397 1 -1.20534 1.81724 -2.55459 
1149 2 -1.36332 0.838401 -3.18646 
1386 2 -0.362673 1.33785 -3.43638 
1310 2 0.197012 1.67707 -4.24105 
1187 2 0.677736 1.5869 -3.36778 
80 1 0.164499 0.807152 -4.74368 
1021 1 0.785095 0.703187 -4.08501 
1683 2 1.20452 1.92943 -3.90635 
625 1 0.135938 0.489344 -3.40774 
615 1 -0.533917 0.339251 -4.26774 
594 1 1.64267 1.03875 -3.9311 
1172 2 4.9464 1.17335 -3.52638 
894 1 2.59494 1.50609 -4.14908 
731 1 4.22544 1.88121 -3.45403 
381 1 5.0402 2.30946 -3.46403 
1497 2 5.10828 1.49354 -4.44251 
1068 2 5.75497 1.42944 -3.79123 
1716 2 -5.0283 2.24266 -4.78362 
188 1 -5.46531 3.20481 -4.33887 
631 1 5.69948 2.62678 -4.08794 
7 1 -5.33975 2.83534 -3.61159 
1482 2 -4.24323 2.71656 -4.9262 
1877 2 -3.85227 2.22599 -3.40562 
1728 2 -4.52376 2.34181 -3.98348 
1142 2 -3.44529 2.81086 -4.1749 
1625 2 -2.77581 3.24515 -4.90935 
1794 2 -2.46865 3.10005 -3.85796 
719 1 -0.981042 2.19069 -3.31241 
852 1 -0.835394 2.68674 -4.36742 
843 1 0.170633 2.95772 -4.23676 
301 1 0.677041 2.74811 -3.31667 
208 1 -0.281298 2.58088 -3.66462 
2020 2 1.74637 1.86082 -3.12018 
1999 2 2.41388 2.35482 -3.51023 
1214 2 3.19276 2.88079 -3.98365 
1522 2 3.76547 2.97201 -3.18605 
1642 2 3.06128 2.6893 -3.00181 
171 1 3.49342 1.86053 -4.11277 
1977 2 4.30335 3.35945 -3.91297 
726 1 5.15947 2.70716 -4.68328 
702 1 4.40346 2.25526 -4.28281 
1349 2 -5.76927 4.31317 -4.44907 
676 1 -4.55399 3.54048 -4.41306 
1575 2 -4.80213 4.48869 -4.05052 
446 1 -3.59482 3.95305 -4.10262 
577 1 -2.55764 4.17986 -3.82023 
250 1 -3.07983 3.86217 -3.13955 
772 1 -2.4504 3.90265 -2.6721 
1476 2 -0.952843 3.23132 -2.84243 
1689 2 -1.03152 3.67919 -3.92664 
1607 2 -1.73505 3.26094 -3.5836 
56 1 0.421501 3.17447 -4.88723 
1304 2 -0.339601 3.61497 -3.36986 
1372 2 0.0603158 4.15696 -4.26863 
709 1 1.58337 3.70171 -4.72949 
76 1 1.05286 3.11481 -4.05446 
1183 2 1.19573 4.26498 -3.67287 
884 1 2.23246 3.72841 -4.17653 
885 1 1.82438 3.31796 -3.55635 
1562 2 3.6624 3.17601 -4.60182 
394 1 3.70931 4.243 -4.07769 
653 1 4.13733 4.58842 -4.71439 
443 1 4.93747 4.96369 -4.33447 
1439 2 4.94621 3.56891 -4.35988 
1636 2 5.69382 3.83804 -3.89517 
1413 2 -4.15082 4.8596 -4.61977 
346 1 -4.81595 5.6485 -4.09853 
993 1 -4.61986 5.42818 -2.88686 
370 1 -5.88665 4.65392 -2.9736 
473 1 -4.17991 -5.8501 -4.35086 
1038 2 -3.28545 4.99368 -4.3559 
1335 2 -4.00933 4.78796 -3.66953 
1757 2 -2.4169 5.6958 -4.29168 
1957 2 -2.7632 5.19489 -3.64557 
632 1 -1.3199 4.69299 -3.97188 
82 1 -0.690907 5.20065 -4.48014 
340 1 -0.642729 4.78943 -3.36264 
1329 2 -1.37874 5.73357 -3.77432 
568 1 -0.0360627 5.0543 -3.89228 
628 1 0.363681 5.39696 -4.65692 
564 1 0.741189 5.19027 -3.46437 
2040 2 0.873952 4.39821 -4.45471 
959 1 0.991821 5.41682 -4.24823 
1093 2 2.66793 5.11739 -4.44202 
1955 2 3.41173 5.6179 -4.90032 
1593 2 3.07587 5.05458 -3.72778 
1691 2 3.75535 5.38579 -4.18429 
1704 2 4.42131 5.79489 -4.4772 
1714 2 4.88445 5.5124 -2.55162 
662 1 5.631 4.99773 -3.75059 
579 1 -5.42223 5.2225 -3.51865 
1425 2 4.76795 5.77985 -3.65706 
1534 2 -4.73543 -5.39001 -2.72171 
280 1 -5.68936 -4.7267 -2.64747 
1285 2 -4.08595 -5.13323 -3.07616 
1197 2 -3.21176 -4.91608 -3.04261 
1404 2 -3.57131 -5.22742 -2.12905 
1047 2 -2.77998 -4.9467 -2.29317 
229 1 -1.77798 -5.71397 -2.02351 
295 1 -2.40999 -5.87138 -2.59473 
1783 2 -2.15177 -4.83858 -1.71536 
260 1 -2.05889 -5.28631 -3.37481 
934 1 -1.27055 -5.38376 -2.72286 
5 1 -0.450433 -5.16516 -2.42184 
1818 2 -0.301063 5.6344 -2.39745 
328 1 0.354628 -4.8892 -2.15504 
1082 2 0.967983 -5.36873 -3.19372 
1319 2 1.01577 -5.60617 -2.46874 
1198 2 2.65243 -4.78657 -3.11761 
1563 2 2.80444 -5.07109 -2.33772 
67 1 3.51289 5.79779 -1.65686 
1521 2 3.58224 -4.61186 -2.76431 
422 1 4.1127 -5.61497 -2.18621 
1013 1 4.51013 -5.38142 -3.02958 
153 1 4.96802 -5.59868 -1.80401 
666 1 5.29449 -5.1283 -2.50614 
1773 2 -5.47671 -5.66793 -3.08719 
1817 2 -5.87889 -3.86197 -2.21825 
864 1 -5.60488 -4.4144 -3.61576 
411 1 -4.87892 -4.48298 -2.57373 
1131 2 -5.62978 -4.04216 -1.45327 
798 1 -3.93235 -4.22659 -2.57706 
366 1 -4.09145 -4.56411 -1.46482 
1402 2 -2.3903 -4.39704 -2.82735 
313 1 -3.25694 -3.52754 -2.89246 
599 1 -2.06386 -3.32246 -2.49588 
1106 2 -1.55664 -4.48863 -2.21331 
1878 2 -0.651841 -4.13808 -2.08364 
1580 2 0.290547 -3.47757 -2.45068 
1263 2 0.988207 -3.66496 -1.58305 
107 1 0.619332 -4.36099 -2.60127 
1457 2 -0.394197 -3.7209 -2.89752 
1401 2 0.71108 -3.22408 -3.04648 
782 1 0.894425 -4.18867 -3.44937 
938 1 1.54511 -4.17446 -2.9307 
321 1 2.21327 -4.16839 -2.17401 
1001 1 2.39065 -3.75784 -3.0315 
639 1 3.12335 -3.42153 -3.30955 
1844 2 3.42373 -4.4973 -3.50254 
1767 2 5.24219 -3.90019 -2.76101 
1240 2 4.43262 -4.19469 -2.96372 
140 1 4.15571 -2.78761 -3.43322 
2002 2 5.33632 -4.20363 -1.7134 
1400 2 -4.98638 -3.0748 -3.57835 
592 1 -5.03877 -2.1075 -2.76707 
1052 2 -3.32245 -2.62996 -2.53114 
58 1 -3.82382 -1.68088 -2.35749 
1289 2 -4.30929 -3.06623 -2.73051 
388 1 -1.74092 -2.92252 -3.25945 
1086 2 -2.52907 -2.31671 -2.63668 
1391 2 -2.79081 -2.63304 -1.86398 
753 1 -1.4191 -3.18604 -1.9859 
677 1 -0.703164 -3.03591 -1.52118 
526 1 -0.914784 -2.71805 -2.71983 
211 1 0.291456 -2.30487 -2.55014 
287 1 0.652952 -1.91345 -3.04735 
581 1 1.43419 -1.94854 -2.63162 
1991 2 1.19049 -3.20272 -2.30635 
1533 2 1.8182 -2.78626 -2.8738 
1123 2 2.71521 -2.57902 -2.79873 
1066 2 2.34622 -2.87984 -2.19819 
602 1 4.01277 -2.58079 -4.27226 
1973 2 3.36673 -2.52799 -2.04598 
562 1 4.53701 -2.99317 -2.58229 
968 1 -5.79528 -2.38279 -2.85938 
296 1 5.37019 -2.73573 -2.59879 
1792 2 -4.87239 -0.797214 -2.74969 
767 1 -4.2339 -1.6568 -2.96989 
1946 2 -5.4753 -1.26257 -2.31989 
917 1 -2.93623 -1.28481 -2.47852 
419 1 -2.51299 -0.975742 -3.16069 
1635 2 -1.67435 -2.06187 -2.45184 
117 1 -2.19885 -1.17697 -2.02167 
898 1 -1.78098 -0.758996 -2.75264 
1808 2 -0.924374 -1.80227 -2.23296 
1870 2 -0.749712 -1.43859 -3.02678 
1916 2 0.669262 -1.36658 -1.9458 
1819 2 -0.0326112 -1.30513 -2.44841 
427 1 1.5105 -1.5517 -3.41249 
106 1 2.2208 -1.61324 -2.41718 
125 1 3.24233 -1.14413 -2.87416 
691 1 2.93286 -1.58528 -2.1798 
1030 2 3.45294 -2.17284 -2.93499 
846 1 3.91265 -1.01336 -2.34824 
334 1 3.63665 -1.43676 -1.69685 
1167 2 4.99272 -1.8635 -1.78122 
1641 2 5.36252 -1.765 -2.56654 
1350 2 4.5379 -1.71963 -3.0978 
32 1 -4.80714 0.509581 -3.04066 
654 1 -5.36412 0.0457026 -2.44143 
1589 2 -4.02879 -0.523083 -2.4105 
1098 2 -2.99128 0.0802596 -3.24119 
1025 2 -3.82499 -0.912532 -1.67084 
824 1 -4.16163 0.463479 -2.4133 
1436 2 -2.132 0.484145 -3.02039 
1206 2 -2.3309 -0.0300584 -2.31954 
1432 2 -3.16509 -0.272253 -2.34807 
1761 2 -1.51996 0.406771 -2.38048 
234 1 -1.74739 -0.440858 -3.64755 
59 1 -1.3875 -0.837327 -1.94673 
2022 2 -0.643252 0.624051 -2.03374 
799 1 -1.07795 -0.50406 -2.7244 
630 1 -0.305101 -0.0158648 -2.81145 
499 1 -0.90424 0.0203719 -3.44566 
1517 2 0.437745 -0.882964 -3.1417 
963 1 0.651037 0.0931658 -2.68939 
464 1 1.48771 0.629261 -3.18644 
1832 2 1.91796 -0.492492 -2.61581 
2027 2 1.30049 -1.01365 -2.34302 
1502 2 2.56042 0.0557384 -3.53618 
1696 2 2.69664 -0.206701 -2.7451 
886 1 2.19569 0.686201 -2.49511 
241 1 4.99064 -0.854926 -2.31841 
2030 2 4.40269 0.168884 -2.05057 
1320 2 3.63795 0.319283 -3.14594 
109 1 4.66567 -0.521432 -3.02491 
297 1 5.52284 -0.310309 -2.60285 
518 1 5.74346 -0.542486 -1.82162 
1986 2 -5.07841 1.38147 -2.58231 
278 1 -4.08579 0.976223 -3.50023 
900 1 -3.6431 0.895226 -2.75957 
1720 2 -4.11857 1.82168 -2.44238 
613 1 -2.86258 1.18374 -3.09855 
189 1 -2.15599 1.48734 -2.57739 
686 1 -1.86952 1.83294 -3.25745 
585 1 -0.40263 2.06555 -2.32227 
259 1 -1.69968 1.36868 -1.79819 
1297 2 0.181665 0.871965 -1.92401 
1104 2 -0.600608 1.04305 -2.71745 
1893 2 0.292607 1.14261 -2.70564 
115 1 -0.821096 1.55997 -1.69753 
1838 2 1.15856 1.42678 -2.60494 
1340 2 2.40483 2.13756 -2.63048 
50 1 2.33811 1.12246 -3.34783 
232 1 3.73974 1.54382 -2.78142 
874 1 3.16785 1.59913 -3.40107 
1952 2 4.41267 0.466067 -2.90708 
1858 2 5.8417 1.17266 -2.8572 
1861 2 5.08208 0.867946 -2.74944 
944 1 4.84323 1.94616 -2.76013 
1803 2 -5.82862 0.898313 -2.16451 
194 1 5.55911 2.12184 -2.43836 
69 1 -4.59862 3.10033 -3.31354 
926 1 -5.19051 2.64973 -2.67524 
1132 2 -4.54205 1.81467 -3.12028 
1512 2 -3.3571 2.10671 -2.64936 
276 1 -4.18536 2.96691 -2.62149 
1485 2 -3.0318 2.65425 -3.2749 
1938 2 -2.50531 2.37871 -2.20178 
26 1 -2.42801 3.37426 -1.87697 
1415 2 -2.1949 2.89778 -3.00238 
1959 2 -1.43517 2.78229 -2.28279 
134 1 0.134553 2.32193 -2.86226 
1756 2 0.118225 3.48059 -2.53584 
910 1 0.900167 2.40569 -2.33395 
1679 2 0.522998 3.28216 -1.82008 
240 1 1.33228 2.92182 -2.921 
937 1 1.91176 2.94994 -2.11747 
478 1 2.40897 3.45456 -2.90622 
1461 2 3.59766 2.52165 -2.23279 
1967 2 2.98631 2.02454 -1.94566 
1330 2 4.30723 2.49401 -1.89672 
1866 2 3.6051 2.18291 -1.37617 
811 1 -5.85969 2.34914 -3.13517 
1026 2 4.45787 2.98684 -2.61815 
1825 2 5.3475 3.01851 -2.11667 
1971 2 -5.36174 3.84329 -3.39011 
1669 2 -4.98501 3.81612 -2.51365 
1278 2 -5.77026 3.46815 -2.20568 
1275 2 -4.61669 4.2348 -3.19883 
369 1 -3.82692 3.40499 -3.37223 
1287 2 -4.02178 4.34071 -2.66263 
989 1 -3.32712 3.30481 -2.53024 
733 1 -1.6357 3.96856 -2.36723 
1601 2 -2.61398 4.85046 -2.41737 
17 1 -1.67455 4.28814 -3.22633 
612 1 -0.902052 4.2963 -2.50839 
1616 2 0.427155 3.90883 -3.46466 
1071 2 1.95528 4.68214 -3.81496 
1499 2 1.62621 4.24238 -2.96096 
1981 2 0.995883 3.81684 -2.53103 
896 1 3.22541 3.59628 -2.46172 
1042 2 2.49874 4.63836 -3.13707 
34 1 2.89915 3.87619 -3.51837 
835 1 4.4537 4.39197 -3.64678 
448 1 3.83055 3.96698 -3.274 
1333 2 5.82807 3.56038 -2.96056 
1994 2 5.12897 3.29712 -3.2364 
775 1 4.78967 4.10567 -2.77247 
262 1 5.00027 3.91461 -1.75906 
166 1 5.47696 4.38229 -2.35837 
952 1 -5.20352 4.96399 -2.37741 
1918 2 -5.26395 -5.80736 -2.07154 
255 1 -4.04072 5.80557 -3.43166 
589 1 -4.17814 5.13865 -2.22508 
1236 2 -2.11207 5.20243 -3.2741 
342 1 -3.63059 5.65264 -2.47053 
1325 2 -3.29488 4.89819 -3.07317 
1339 2 -1.5913 5.22282 -2.46303 
1571 2 -0.987359 5.6186 -3.0008 
954 1 -1.4156 5.81711 -1.21705 
86 1 0.20953 4.85986 -2.92665 
1543 2 -0.856615 5.23881 -2.02762 
1503 2 0.456436 5.78756 -1.99401 
652 1 1.27682 5.33013 -2.71427 
442 1 1.47967 5.51595 -3.53816 
425 1 2.18822 5.78318 -2.9577 
487 1 2.91381 5.69393 -2.57774 
1612 2 4.00972 5.233 -3.27727 
1090 2 4.20259 5.06127 -2.31544 
918 1 5.13368 4.70988 -3.20492 
1489 2 5.90725 5.62342 -2.32668 
2000 2 5.37674 5.37668 -1.77123 
182 1 -4.84205 -4.69597 -1.79217 
988 1 -5.20048 -5.1953 -1.11538 
1822 2 -3.77882 -5.87868 -1.15363 
724 1 -4.33873 -5.00177 -0.682512 
1122 2 -4.31405 -5.68779 -1.93986 
1454 2 -2.90963 -5.37597 -1.31763 
1815 2 -3.33832 -5.94538 -0.300717 
1802 2 -2.39852 -5.37498 -0.570312 
337 1 -0.857477 -5.41514 -1.73214 
1613 2 -1.07745 -4.40934 -1.50012 
1843 2 -1.54641 -4.98766 -0.950585 
678 1 -1.0869 5.68461 -0.228606 
147 1 0.0346192 -5.22665 -1.43554 
459 1 -0.501402 -5.89536 -0.853252 
661 1 0.935025 -4.98986 -1.42386 
1887 2 1.88157 -5.2759 -2.36729 
2019 2 2.9395 -5.31777 -1.3615 
1859 2 3.58779 -5.40919 -0.69943 
1194 2 4.62994 -5.18159 -0.339489 
1765 2 3.83917 -4.78923 -1.79295 
452 1 5.92282 -5.1251 -1.84111 
2017 2 4.3228 -4.93959 -1.10682 
456 1 5.68486 -5.6356 -1.13124 
65 1 -5.75126 -5.74495 -0.442272 
1545 2 -5.14342 -3.41365 -2.41352 
1217 2 -4.85548 -3.63068 -1.70362 
504 1 -3.54981 -4.02133 -1.85778 
1387 2 -4.17227 -3.5042 -1.09918 
1948 2 -4.07328 -3.0741 -1.92834 
1857 2 -3.91087 -3.81166 -0.339995 
246 1 -2.73359 -3.74377 -2.12617 
21 1 -2.86908 -4.14575 -1.28549 
441 1 -3.43402 -4.60154 -0.994268 
1896 2 0.0955915 -3.98166 -1.6212 
71 1 -2.11854 -3.70953 -1.61658 
844 1 -2.0665 -4.13734 -0.764311 
986 1 -1.11083 -3.63908 -0.975867 
1753 2 0.6235 -4.11404 -0.924198 
703 1 -0.198105 -3.26328 -0.80406 
20 1 1.37583 -4.51164 -1.92353 
1894 2 1.49565 -3.87273 -0.708 
1738 2 1.75219 -3.38297 -1.67055 
914 1 2.99141 -3.72198 -2.4635 
550 1 2.36586 -4.45287 -1.4475 
137 1 3.11214 -3.9458 -1.55931 
1985 2 2.00785 -3.82569 0.0311524 
754 1 3.66397 -3.31037 -2.6666 
928 1 3.98222 -3.60252 -1.85305 
1530 2 4.56569 -4.46931 -2.06072 
1471 2 5.37142 -4.58734 -0.908787 
311 1 5.05098 -3.09074 -1.89068 
636 1 -5.93363 -2.76151 -2.02704 
275 1 -5.15656 -2.50109 -1.73337 
734 1 -5.42544 -2.9863 -1.0685 
219 1 -4.48928 -2.59661 -0.879863 
285 1 -4.50617 -2.10799 -2.14076 
532 1 -3.89033 -2.15931 -1.47276 
1505 2 -3.15417 -3.16333 -1.16417 
1449 2 -2.31362 -2.65776 -0.782264 
1442 2 -3.16813 -3.33 -0.417575 
1113 2 -1.41355 -2.48233 -0.808153 
1069 2 -1.91771 -2.35783 -1.63321 
1796 2 -1.05165 -2.03394 -1.47767 
1801 2 -0.646909 -2.4781 -0.263123 
566 1 -0.244761 -2.67327 -2.12762 
659 1 0.261167 -2.82358 -1.3361 
1143 2 -0.160063 -1.95921 -0.84978 
215 1 1.04526 -2.46828 -1.04952 
705 1 1.11975 -2.3434 -1.93747 
1947 2 2.79868 -3.05855 -1.23721 
839 1 1.90873 -2.41526 -0.759487 
1923 2 2.10572 -3.42957 -0.934209 
1279 2 4.19913 -2.02159 -2.3973 
1698 2 4.02165 -2.48527 -1.54549 
1028 2 4.38465 -2.86784 -0.542092 
213 1 5.63501 -3.12802 -1.24803 
1978 2 4.73431 -2.42062 -1.08456 
314 1 5.78046 -3.39825 -0.361382 
1587 2 5.82536 -1.66455 -1.70945 
1972 2 -4.70473 -1.01525 -1.8556 
1299 2 -5.1736 -1.5115 -1.30737 
1940 2 -4.2202 -1.28008 -1.00426 
1128 2 -3.2309 -0.863903 -1.07963 
449 1 -3.00218 -1.70635 -1.69396 
722 1 -2.83796 -1.80111 -0.772459 
548 1 -2.06508 -1.29304 -1.0381 
948 1 -1.79424 -1.66191 -0.310433 
683 1 -1.27325 -1.21499 -0.968521 
1057 2 -0.0142082 -1.70709 -1.60265 
468 1 -0.573343 -0.836198 -1.46696 
2046 2 0.731089 -1.49332 -1.09783 
1360 2 1.54515 -1.09201 -1.49838 
1897 2 2.36775 -1.10999 -0.829474 
1831 2 1.55138 -1.45086 -0.601875 
377 1 1.92211 -2.16112 -1.5842 
199 1 2.78424 -1.91292 -1.27173 
1568 2 2.30587 -0.708009 -1.63413 
1076 2 3.18285 -0.757111 -0.898592 
626 1 3.48922 -1.7211 -0.882981 
867 1 4.50696 -1.05716 -1.55508 
198 1 4.43059 -1.5016 -0.782597 
1990 2 5.61129 -2.04879 -1.04593 
279 1 5.36754 -0.849767 -1.11413 
168 1 5.16147 -1.22328 -0.364566 
222 1 4.86242 -1.81855 0.264171 
876 1 -5.27508 -0.216969 -1.53152 
912 1 -4.6799 0.133287 -1.96309 
921 1 -3.54649 0.589825 -1.8904 
472 1 -3.79065 0.111561 -1.23783 
1507 2 -2.79199 -0.336511 -1.58054 
307 1 -3.07901 0.57209 -1.13611 
2043 2 -1.69929 0.078405 -1.60707 
1323 2 -1.43748 -0.203382 -0.837691 
1067 2 -0.837625 0.234071 -1.32114 
160 1 0.716976 -0.333658 -1.85266 
447 1 -0.139604 -0.360205 -2.05128 
1213 2 0.0479293 0.530837 -1.13785 
1735 2 -0.690403 0.0274679 -0.44665 
776 1 1.41367 0.355235 -2.15897 
121 1 1.95456 0.194904 -1.5619 
721 1 1.22087 -0.218904 -1.10697 
1314 2 3.09931 -0.42999 -1.68555 
243 1 2.68278 0.70526 -1.81467 
1758 2 3.93747 -0.233252 -1.28928 
1680 2 3.5546 0.0480106 -2.36385 
783 1 4.10475 1.01856 -1.10336 
1564 2 4.79183 0.0403037 -1.25396 
1220 2 5.22134 0.519159 -1.95636 
1468 2 5.82588 0.22267 -0.573082 
1724 2 -4.79356 1.25097 -1.89736 
1508 2 5.89208 0.536672 -1.29337 
351 1 -5.34451 1.89035 -1.15878 
1282 2 -3.82411 1.59628 -1.70779 
2038 2 -4.2912 1.02831 -1.02987 
1520 2 -3.03203 1.89804 -1.68089 
94 1 -2.81415 1.08006 -2.18024 
192 1 -2.47736 0.930047 -1.4145 
1229 2 -3.39838 1.50621 -0.880531 
919 1 -1.29003 1.13754 -1.10914 
608 1 0.34689 2.07534 -1.74706 
1860 2 0.937142 1.21196 -1.84732 
660 1 -0.175761 1.5026 -1.04716 
1944 2 1.89197 1.55581 -2.15314 
1726 2 1.56293 1.21528 -1.28203 
1215 2 0.901668 0.843743 -0.934839 
823 1 1.06713 2.27049 -1.05595 
90 1 2.98175 1.1598 -2.46605 
1158 2 2.34903 1.63601 -1.43623 
1681 2 2.22163 1.08859 -0.749717 
104 1 3.66862 1.08192 -1.82119 
1017 1 4.26757 1.42149 -2.14917 
110 1 4.84858 1.29853 -1.45314 
516 1 -5.54716 2.14362 -1.9711 
761 1 5.62717 1.69476 -1.62744 
1399 2 -5.07103 3.00541 -0.672964 
966 1 -4.64428 2.4681 -1.79519 
298 1 -4.46674 2.22659 -0.790888 
879 1 -3.84382 2.53827 -1.19731 
1776 2 -2.41666 1.94907 -1.02217 
460 1 -2.46372 3.01771 -1.03349 
323 1 -3.36822 2.9706 -1.714 
1839 2 -1.77834 2.28901 -1.6059 
2021 2 -0.472393 3.0244 -2.06641 
1092 2 -1.09019 2.49864 -1.32301 
1968 2 1.29279 3.60713 -1.82049 
1247 2 -0.0770274 2.91115 -1.33945 
143 1 2.2032 2.59663 -1.04284 
945 1 1.44007 2.44098 -1.70228 
828 1 2.70991 3.03778 -1.82138 
183 1 3.14258 2.93969 -0.965666 
114 1 2.63769 2.24952 -0.134369 
1874 2 3.10523 1.58016 -0.926276 
1368 2 4.49696 2.1629 -1.08891 
1527 2 -5.84801 2.9898 -1.42005 
1328 2 5.29258 2.58707 -1.25766 
1276 2 -5.92154 2.5739 -0.428272 
1105 2 -4.87983 3.46261 -1.63631 
355 1 -5.78418 4.55467 -1.91332 
582 1 5.74918 3.93889 -1.33196 
974 1 -5.26203 4.34133 -1.21713 
1419 2 -4.11895 3.83761 -1.91457 
1853 2 -3.6055 3.87377 -1.12495 
520 1 -1.70488 3.41848 -1.51211 
1992 2 -3.39001 4.32872 -2.03947 
1348 2 -2.68178 4.34675 -1.5414 
720 1 -0.849724 3.79263 -1.63763 
1023 1 -1.31372 3.34605 -0.785546 
418 1 -0.500783 3.75491 -0.8913 
1646 2 -1.24066 4.75228 -1.30851 
836 1 0.63368 4.67775 -2.00804 
111 1 -0.175935 4.35686 -2.15037 
361 1 0.173871 4.13969 -1.28084 
736 1 1.4459 4.80783 -1.59425 
1997 2 2.07657 4.03141 -2.21289 
1428 2 1.71004 3.5775 -0.941611 
43 1 1.3772 4.40794 -0.402276 
1854 2 2.33875 3.94348 -1.28936 
1764 2 2.80051 4.40031 -2.06881 
1868 2 3.33254 4.16604 -1.21296 
510 1 3.78302 3.46586 -1.68374 
181 1 3.91389 3.09633 -0.818154 
1178 2 3.73153 4.65805 -1.75024 
552 1 4.05241 3.91771 -2.39594 
432 1 4.57031 3.38344 -1.14186 
1362 2 -4.83007 5.62519 -1.39153 
961 1 -4.59704 4.64701 -1.58716 
1351 2 -4.48786 5.62762 -0.661538 
679 1 -3.9285 4.77599 -0.939665 
203 1 -3.39828 5.13275 -1.41432 
119 1 -2.98597 5.67878 -1.99256 
158 1 -2.89013 5.1347 -0.879541 
1014 1 -2.27238 5.68843 -1.44005 