ITEM: TIMESTEP
23200
ITEM: NUMBER OF ATOMS
2048
ITEM: BOX BOUNDS pp pp pp
-5.9342828988701948e+00 5.9342828988701948e+00
-5.9342828988701948e+00 5.9342828988701948e+00
-5.9342828988701948e+00 5.9342828988701948e+00
ITEM: ATOMS id type x y z 
1559 2 -5.1264 -4.8366 -5.10228 
412 1 -4.54661 -5.6612 -5.23302 
1612 2 -5.86044 -5.07454 -4.7577 
1227 2 -5.75186 -4.65955 -5.53943 
5 1 -3.02177 -5.33002 -4.53858 
342 1 -3.72847 -5.43787 -4.96743 
508 1 -3.18144 -4.94287 -5.51701 
91 1 -2.53024 -4.82848 -4.86233 
1526 2 -1.9602 -5.48786 -5.62114 
1035 2 -0.980988 -5.00642 -5.56427 
1551 2 -1.29628 -5.59634 -4.91221 
1542 2 0.2223 -4.59672 -5.65447 
1236 2 -0.197847 -4.96633 -4.98248 
1334 2 0.650097 -4.92513 -4.90575 
425 1 1.42037 -5.3325 -5.78927 
442 1 1.71087 -5.56504 -4.90597 
64 1 2.60355 -5.12713 -4.88798 
575 1 2.23249 -5.02306 -5.80159 
1846 2 4.29794 -5.69764 -5.17146 
242 1 3.91062 -4.83416 -4.65948 
1799 2 4.49988 -5.12324 -5.78734 
1239 2 3.71358 -5.62508 -5.84496 
931 1 3.21022 -4.80078 -5.44638 
1931 2 4.91332 -5.78468 -4.47435 
1192 2 5.31462 -5.19378 -5.18166 
684 1 -5.15348 -3.42221 -5.39351 
1390 2 -4.95579 -4.22525 -5.90672 
1467 2 -4.37533 -4.33645 -5.06906 
1472 2 -3.97429 -4.07142 -5.7172 
1617 2 -2.43322 -3.57741 -5.11471 
1773 2 -3.30428 -3.96039 -4.92433 
1270 2 -3.21353 -3.67049 -5.80714 
3 1 -2.25052 -4.50252 -5.54538 
530 1 -1.18081 -4.09326 -5.21305 
202 1 -0.0563093 -3.99433 -4.65607 
414 1 0.685313 -3.39802 -5.44758 
924 1 -0.248403 -3.72331 -5.42775 
1082 2 1.63632 -4.40192 -5.02008 
1 1 1.45388 -3.42614 -4.9953 
1291 2 1.06174 -4.34533 -5.65309 
1678 2 3.00484 -3.93518 -4.83677 
1260 2 2.4583 -3.93541 -5.63347 
1483 2 4.24873 -3.47997 -4.82295 
1887 2 3.68285 -3.36616 -5.59741 
481 1 3.9938 -4.37289 -5.48435 
180 1 4.60352 -4.50311 -4.9601 
511 1 5.72183 -3.75432 -5.54764 
280 1 5.4413 -4.21152 -4.6752 
223 1 4.84458 -3.96331 -5.6774 
1937 2 -5.30636 -2.38969 -5.17458 
353 1 -4.45522 -3.25107 -5.08453 
465 1 -3.76515 -3.13714 -4.73739 
965 1 -3.46276 -2.687 -5.47567 
664 1 -2.63669 -2.12195 -5.57641 
622 1 -1.97693 -2.21633 -4.82142 
1630 2 -1.52964 -3.17162 -5.33806 
2009 2 -1.33363 -2.75206 5.81688 
595 1 -1.0919 -1.96506 -4.75854 
1710 2 -2.29401 -3.10557 -5.8455 
1370 2 -0.587371 -2.66025 -5.24504 
1581 2 0.274705 -2.75206 -4.89727 
1495 2 -0.312207 -2.49278 5.9292 
1525 2 0.549485 -2.23347 -5.77342 
738 1 1.42418 -2.97924 -5.89401 
1515 2 1.61146 -1.84449 -5.63469 
1555 2 1.10643 -2.27659 -5.03612 
122 1 2.26436 -3.12521 -5.07401 
485 1 2.44382 -2.67903 -5.79231 
939 1 3.1568 -2.54311 -5.2439 
1705 2 4.47129 -3.09522 -5.43842 
33 1 4.12765 -2.14691 -4.9846 
2032 2 5.26289 -3.03144 -5.02186 
1491 2 5.67966 -2.58313 -5.50285 
277 1 4.90272 -1.98408 -4.67126 
609 1 -5.48906 -1.22921 -5.40872 
205 1 -4.66998 -0.987768 -5.06822 
1745 2 -4.63609 -2.1826 -5.59001 
1588 2 -4.1235 -1.92648 -5.08692 
1196 2 -4.00492 -1.48946 5.94326 
833 1 -3.44184 -0.680077 -4.68677 
1924 2 -3.61203 -1.98801 -4.39259 
1271 2 -3.28954 -1.34669 -5.41008 
1243 2 -2.29448 -1.07368 -5.2168 
151 1 -1.66865 -1.91721 -5.62444 
1809 2 -1.59106 -0.49031 -5.61189 
1171 2 -1.33127 -0.877821 -4.85573 
1006 1 -0.893714 -1.5569 -5.62827 
1345 2 -1.95199 -1.42712 -4.15269 
830 1 -0.0436939 -1.47043 -5.57933 
35 1 -0.23198 -1.6964 -4.61667 
421 1 0.619901 -1.48172 -4.65677 
674 1 0.730588 -1.08428 -5.43773 
427 1 1.41386 -1.23512 -4.55333 
1401 2 3.1841 -1.23374 -5.54796 
1087 2 2.30669 -1.70252 -5.29372 
1533 2 2.65644 -1.73791 -4.35729 
916 1 2.19761 -0.909176 -4.73708 
1363 2 3.58965 -1.37354 -4.52711 
1332 2 4.21764 -0.975301 -5.19787 
706 1 4.70518 -1.79934 -5.63493 
406 1 5.74017 -1.33069 5.82615 
999 1 5.47419 -1.66245 -5.22601 
1030 2 5.06775 -0.746937 -5.25284 
1615 2 -5.36244 -0.00451239 -5.17707 
1623 2 -4.99312 0.518836 -5.89571 
2036 2 -5.65669 0.0173402 5.98477 
771 1 -4.00694 -0.540389 -5.13748 
1110 2 -4.49981 0.458346 -5.22784 
543 1 -3.21097 -0.0123417 -5.16081 
505 1 -2.50502 -0.170665 -4.90997 
374 1 -2.3475 0.258697 -5.85657 
827 1 -1.617 0.205643 -4.69133 
789 1 -0.766524 0.482458 -5.08155 
1414 2 -0.90064 -0.242521 5.77342 
212 1 -1.63409 0.592118 -5.63263 
1355 2 -0.505654 -0.492108 -5.31919 
1500 2 0.115683 -0.0611308 -5.79764 
1804 2 0.139404 -0.38906 -4.54985 
1963 2 0.63838 -0.0513798 -5.22692 
1572 2 1.35027 0.340747 -5.52784 
1644 2 1.51256 0.0804248 -4.76007 
768 1 1.5561 -0.707904 -5.50239 
31 1 2.53838 -0.538826 -5.38951 
578 1 2.08426 -0.239084 5.74351 
138 1 3.2703 -0.0509409 -5.6422 
866 1 3.70521 0.0379765 -4.88012 
195 1 4.22649 0.543219 -5.64929 
560 1 4.71136 0.153309 -4.6012 
299 1 5.00386 0.573619 -5.28159 
1725 2 5.45923 -0.291219 -5.83645 
1982 2 5.97181 -0.439604 -4.93264 
656 1 -5.13889 1.33009 -5.37433 
697 1 -4.21565 1.83502 -5.16051 
1498 2 -4.19234 1.00545 5.87081 
1830 2 -3.64541 0.944002 -5.12238 
2001 2 -2.91375 0.761675 -4.52891 
1343 2 -2.59448 1.23291 -5.30971 
1256 2 -1.98565 1.22289 -4.73904 
1063 2 -1.67455 1.62879 -5.39692 
1884 2 -0.858155 1.75015 -5.13431 
842 1 -0.0697915 0.822134 -5.42457 
401 1 0.519862 1.43312 5.95006 
254 1 0.789984 1.08488 -4.99118 
63 1 1.2222 1.59976 -5.53001 
1021 1 1.69708 1.40107 -4.60627 
1502 2 2.13205 0.465881 -5.11409 
1180 2 2.91779 1.24715 -5.83313 
380 1 2.16704 1.83551 -5.00762 
1777 2 2.90158 0.804546 -5.15064 
895 1 3.48434 2.28558 -4.84029 
1953 2 3.67098 1.3144 -5.25463 
60 1 5.92139 1.23117 -5.96284 
1910 2 4.44799 1.85624 -5.56391 
1412 2 4.69584 1.55056 -4.7164 
469 1 5.72401 0.753433 -5.1669 
1132 2 5.28837 2.06809 -5.64118 
1717 2 -4.71295 2.68661 -5.36585 
1810 2 -5.59637 2.17573 -4.94587 
1482 2 -3.93653 3.01756 -4.99034 
820 1 -3.57228 2.10604 -5.50154 
1431 2 -3.96241 3.2127 -5.83709 
982 1 -2.94174 2.05795 -5.01244 
1015 1 -2.29858 2.11738 -4.21846 
491 1 -2.82197 2.5013 -5.76332 
1945 2 -0.883762 2.06777 -5.86119 
494 1 -1.95111 2.44609 -4.95921 
815 1 -1.13468 3.02421 -5.79376 
593 1 -1.20572 2.71737 -4.83939 
885 1 -0.441692 3.04134 -5.07001 
56 1 0.412111 3.49849 -4.85983 
1130 2 0.039772 2.13607 -5.428 
1979 2 0.717547 2.19114 -4.76646 
1628 2 1.4468 2.83917 -4.96661 
1322 2 1.96555 3.17969 -5.55847 
382 1 2.90743 2.16761 -5.47288 
1342 2 2.22753 2.93313 -4.60234 
574 1 4.05608 2.72202 -5.384 
726 1 4.87925 2.96995 -5.07906 
869 1 4.6368 3.14339 5.93273 
762 1 5.44042 3.34026 -5.61801 
676 1 -5.22022 3.59298 -5.193 
45 1 -4.38467 3.89022 -5.19504 
1073 2 -5.72362 4.42635 -4.75828 
923 1 -3.94591 4.39926 -5.77366 
755 1 -3.42708 4.30653 -5.07677 
1716 2 -3.06942 3.33361 -5.33698 
92 1 -3.11225 4.66956 5.75995 
1934 2 -2.34977 3.73667 -5.4163 
632 1 -2.67496 4.75482 -5.36065 
1142 2 -1.22535 3.8585 -5.11532 
1692 2 -0.775254 3.86465 -4.17208 
1596 2 -0.479156 4.28281 -4.99652 
1336 2 0.130344 4.2804 -4.30382 
852 1 -0.00889791 3.55795 -5.64899 
716 1 0.853707 3.93992 -5.61483 
709 1 1.28117 3.62284 -4.46177 
884 1 1.61236 4.11132 -4.99402 
501 1 2.35552 4.22714 -5.26974 
1146 2 2.77384 3.25411 -5.19041 
1618 2 4.42664 4.26018 5.80947 
1274 2 3.5542 3.36853 -4.78372 
1562 2 4.54872 3.7467 -4.59866 
262 1 3.45391 4.77855 -5.19486 
1640 2 4.1207 3.87654 -5.27648 
1349 2 5.24112 4.27128 -5.1916 
1088 2 -4.94215 4.82474 -5.1279 
699 1 -5.33086 5.8152 -4.99293 
1365 2 -4.12249 5.1067 -5.11673 
1453 2 -3.58972 5.51472 -5.63975 
1127 2 -2.46337 5.85223 -5.10551 
1510 2 -3.50797 5.4189 -4.69554 
1038 2 -1.85593 5.85289 -4.41785 
221 1 -1.85331 5.01899 -5.34401 
340 1 -0.824723 5.48015 -5.30387 
1824 2 0.228534 4.68083 -5.32501 
350 1 0.00493534 5.82096 -5.05538 
1093 2 0.852509 5.14936 -5.61568 
1691 2 1.53064 5.23291 -5.23975 
237 1 0.88023 -5.91341 -5.11678 
1480 2 0.805594 4.72058 -4.8216 
18 1 2.73887 4.67283 -5.86617 
1354 2 2.27085 5.60301 -5.45939 
1847 2 3.15125 5.86263 -5.27687 
1955 2 3.59312 5.72065 -4.73776 
437 1 4.27409 5.21496 -5.61885 
318 1 5.01773 5.32009 -5.05469 
172 1 5.61201 5.70574 -5.53897 
1411 2 -4.81646 -4.81866 -4.36474 
2000 2 -5.37951 -5.26264 -3.9192 
255 1 -4.59061 5.94088 -4.42274 
453 1 -3.80298 -5.81911 -4.01287 
1534 2 -3.74614 -4.68092 -3.47136 
274 1 -2.97932 -5.60821 -3.7185 
147 1 -2.13392 -5.22504 -3.79299 
497 1 -1.65915 -5.28693 -3.06781 
467 1 -1.37041 -4.85025 -4.04025 
1029 2 -0.654336 -5.37219 -4.41562 
902 1 -0.719694 -4.88766 -3.50625 
1571 2 0.283487 -5.30322 -4.07223 
1928 2 -0.200277 -5.72605 -3.57588 
1984 2 1.31675 -4.79599 -4.32308 
1199 2 1.02361 -5.19175 -3.70484 
1338 2 0.66141 -5.64688 -2.91054 
19 1 3.41658 -5.37358 -4.07901 
673 1 2.24893 -5.70199 -4.29841 
1563 2 1.91341 -4.74881 -3.68913 
667 1 2.87981 -5.58075 -3.63966 
955 1 4.22556 -5.02442 -3.80781 
131 1 5.02028 -4.64207 -4.08565 
1126 2 5.73275 -5.5264 -4.12095 
373 1 -5.54364 -3.77416 -4.76121 
75 1 -4.72238 -3.53223 -4.3825 
251 1 -4.84607 -3.89616 -3.71221 
809 1 -5.56723 -4.0482 -4.08001 
1425 2 -3.73943 -4.51514 -4.44659 
273 1 -3.95822 -3.61802 -3.88089 
504 1 -3.33447 -3.60249 -3.18141 
1046 2 -2.66418 -4.01449 -4.32677 
1272 2 -3.12439 -4.45715 -3.92353 
1197 2 -2.1172 -3.97075 -3.56302 
765 1 -1.76266 -4.67252 -4.74639 
1711 2 -1.80187 -3.56221 -4.40621 
855 1 -0.697316 -4.33299 -4.31947 
1602 2 -0.704571 -3.13691 -4.52531 
1079 2 -1.23219 -3.46246 -3.7411 
227 1 0.768168 -3.87534 -4.49935 
416 1 -0.0821117 -4.37405 -3.62497 
1231 2 -0.372712 -3.46345 -3.43941 
819 1 1.66531 -3.49235 -4.15934 
782 1 0.789456 -4.14093 -3.58006 
20 1 1.64585 -3.8068 -3.29272 
136 1 2.39316 -3.3434 -3.84112 
1486 2 2.26206 -4.26405 -4.39793 
1528 2 2.97221 -4.37054 -3.88796 
1592 2 3.67508 -3.85627 -4.23619 
1995 2 4.37888 -3.82897 -3.71848 
1232 2 3.57255 -4.35363 -3.36234 
339 1 5.79425 -4.5281 -3.39395 
1836 2 5.3253 -3.58917 -3.61763 
1465 2 -5.0802 -2.62854 -3.81469 
1871 2 -5.7752 -2.82215 -4.52773 
1657 2 -5.93903 -3.15145 -3.65818 
1664 2 -4.62269 -2.37593 -4.54218 
1902 2 -4.03046 -2.51536 -3.57311 
1545 2 -4.64051 -3.00881 -3.18271 
218 1 -2.83367 -2.63361 -4.72143 
196 1 -3.24078 -3.14853 -3.98407 
753 1 -2.42133 -2.80403 -3.95532 
236 1 -1.7416 -2.55148 -4.08754 
313 1 -0.886185 -2.31185 -3.94943 
1991 2 0.0880942 -2.97631 -4.09276 
657 1 -0.152629 -2.03506 -3.90867 
1263 2 0.540241 -3.26529 -3.36064 
1848 2 0.964334 -2.64224 -4.24072 
1580 2 1.75289 -2.48387 -3.78196 
1326 2 1.88417 -2.25557 -4.57409 
547 1 2.8249 -2.92307 -4.47947 
639 1 3.2511 -3.11255 -3.59473 
1698 2 2.6654 -2.09057 -3.63844 
475 1 3.65639 -2.66786 -4.31778 
403 1 4.4588 -2.56053 -4.05221 
550 1 4.09444 -2.88134 -3.33929 
1750 2 5.19252 -3.31314 -4.28156 
140 1 5.44208 -2.28144 -3.98636 
562 1 -5.9094 -1.73612 -4.52843 
784 1 -5.09711 -1.36461 -4.41403 
636 1 -5.51614 -1.76769 -3.54629 
161 1 -4.12567 -1.04001 -4.33185 
592 1 -4.48922 -1.56514 -3.48829 
948 1 -3.6699 -1.29293 -3.24943 
1867 2 -2.92621 -1.59782 -4.5864 
1097 2 -2.22827 -1.8428 -3.53771 
1908 2 -3.0286 -2.08771 -3.62154 
1573 2 -1.21642 -1.17187 -3.94825 
1975 2 -0.559135 -0.72911 -4.51315 
1870 2 -0.402281 -1.11342 -3.62381 
287 1 0.668239 -1.81205 -3.77086 
1223 2 0.374038 -0.835181 -3.67991 
1568 2 1.17069 -0.625169 -3.40193 
705 1 1.61272 -1.43332 -3.71269 
640 1 2.45298 -1.06011 -3.74336 
758 1 3.28835 -0.838053 -3.65573 
1738 2 3.62307 -1.81796 -3.87675 
1645 2 4.47953 -1.15123 -4.31515 
1259 2 4.61375 -1.49703 -3.46815 
1083 2 5.39665 -0.882852 -4.27548 
1775 2 5.36882 -1.34244 -3.65757 
2048 2 -4.95679 -0.161406 -4.46579 
1163 2 -5.6266 -0.571567 -3.97587 
1350 2 -4.9032 -0.568304 -3.49678 
32 1 -5.55776 0.502464 -3.88316 
1111 2 -4.29558 -0.112186 -3.95931 
1346 2 -4.01903 0.424654 -4.46536 
1876 2 -3.40393 0.307231 -3.94273 
701 1 -3.0826 -0.741745 -3.89211 
1736 2 -2.60201 0.317701 -3.50331 
451 1 -2.1143 -0.320552 -4.20044 
704 1 -0.954399 -0.143827 -3.13488 
214 1 -1.16725 -0.058577 -3.91404 
594 1 -0.759384 0.482687 -4.25757 
447 1 0.535764 0.495808 -3.44043 
1673 2 0.972471 -0.370314 -4.21932 
1832 2 1.93132 -0.177883 -3.78421 
581 1 2.93212 -0.516841 -4.50746 
1314 2 2.62396 0.37723 -4.34515 
1696 2 2.85133 0.128891 -3.55629 
42 1 3.92919 -0.317343 -3.95234 
2008 2 3.45106 0.587663 -4.10741 
715 1 5.488 0.395081 -4.37992 
334 1 4.90375 -0.117181 -3.58461 
109 1 -5.49854 0.960832 -4.5896 
190 1 -4.6514 1.31482 -4.49627 
1403 2 -4.72459 1.91063 -3.25438 
1654 2 -5.852 1.54184 -3.63487 
278 1 -4.68177 0.813231 -3.54994 
338 1 -3.99329 1.35036 -3.89518 
689 1 -3.56514 1.78777 -4.58173 
1962 2 -1.97186 0.772937 -3.97761 
903 1 -3.05539 1.55249 -3.96257 
164 1 -3.2135 1.21725 -3.19693 
686 1 -2.27153 1.75085 -3.39761 
1298 2 -1.18029 1.46878 -4.30524 
1054 2 -1.4157 0.983942 -3.50179 
517 1 0.281404 0.666979 -4.2822 
1769 2 -0.0909655 1.73988 -4.54104 
1653 2 0.600907 1.97676 -3.77517 
1364 2 -0.457931 1.33905 -3.64372 
80 1 1.13839 0.906807 -4.10409 
90 1 1.56104 0.832894 -3.29178 
551 1 2.84335 1.74986 -4.38573 
760 1 2.24061 1.18725 -3.97397 
731 1 3.12694 1.40365 -3.54848 
1470 2 4.01888 1.11936 -4.63336 
1011 1 3.73625 1.98854 -3.96087 
1172 2 4.58398 0.940157 -3.72858 
1877 2 5.63767 1.85022 -4.66031 
1861 2 5.15542 1.40323 -4.04437 
1762 2 -5.26456 2.01155 -4.01304 
188 1 -5.63058 3.00895 -3.91113 
926 1 -4.59043 3.0883 -3.33974 
1512 2 -4.1447 2.41015 -3.92498 
1938 2 -4.67872 2.53703 -4.51461 
1476 2 -3.45829 2.82202 -4.29851 
1415 2 -2.78303 3.16199 -4.57225 
1268 2 -2.2812 3.13334 -3.71944 
1959 2 -3.05442 2.65443 -3.45361 
310 1 -1.4673 2.29949 -3.9716 
208 1 -0.614363 2.6362 -4.22855 
719 1 -0.982122 2.17855 -3.24793 
76 1 0.272107 3.02136 -4.23086 
843 1 0.446186 2.7757 -2.88885 
2020 2 1.41969 2.3215 -4.10939 
1461 2 1.7574 2.06884 -3.31828 
1214 2 2.32225 2.4671 -3.7606 
2039 2 3.06142 2.98289 -4.12486 
1825 2 2.69092 2.25707 -3.07362 
894 1 4.34635 2.45422 -4.41841 
1105 2 3.39389 2.65061 -3.16271 
204 1 5.41712 2.74708 -4.10952 
631 1 4.80578 2.45764 -3.57015 
882 1 5.82821 3.117 -4.83441 
1278 2 -5.48696 4.19848 -3.69816 
446 1 -4.9586 3.45831 -4.41603 
1636 2 -5.28106 3.83878 -2.88808 
69 1 -4.03018 3.5225 -3.52879 
369 1 -4.18641 3.79915 -4.43181 
989 1 -3.42743 4.08126 -4.18701 
1527 2 -4.56211 4.48096 -3.54469 
250 1 -2.71646 4.48536 -4.54873 
17 1 -1.84237 4.55403 -4.50203 
1175 2 -2.04683 3.56211 -4.69351 
1625 2 -1.35658 3.40775 -3.95577 
361 1 -1.8129 4.3089 -3.70588 
1869 2 -0.10999 3.86134 -3.55101 
1372 2 1.02135 4.51322 -3.94225 
478 1 0.863917 3.11248 -3.71634 
653 1 2.29503 3.9118 -4.44464 
448 1 1.56152 3.52076 -3.81826 
2040 2 1.46891 4.33945 -3.15703 
407 1 3.03883 4.26117 -4.6885 
256 1 2.83811 3.83579 -3.79667 
34 1 3.59716 4.0552 -3.3111 
1522 2 3.99676 3.35831 -3.94546 
775 1 3.58411 4.39814 -4.0738 
432 1 4.43146 4.55211 -3.75533 
1439 2 5.48406 3.95655 -4.28867 
1977 2 4.87036 3.50026 -3.70731 
1333 2 5.78092 3.65368 -3.28533 
1670 2 -4.81151 4.66464 -4.34582 
825 1 -5.30712 5.64743 -4.07851 
662 1 -5.07805 5.44188 -3.29619 
1048 2 -4.07525 5.07535 -4.11024 
805 1 -4.19703 5.76988 -3.17866 
1413 2 -3.13407 4.96282 -3.75224 
1575 2 -2.65203 5.4683 -4.36037 
1353 2 -1.10422 5.94297 -3.95727 
577 1 -1.11688 4.95599 -4.70007 
1543 2 -1.03505 5.70553 -3.04356 
638 1 -0.367907 5.25439 -4.29693 
836 1 -0.847887 4.79729 -3.67329 
428 1 0.518232 5.67368 -4.39948 
123 1 0.38156 5.30336 -3.6106 
41 1 1.36683 5.84671 -4.11646 
1593 2 1.60027 4.94946 -4.47071 
612 1 1.07808 5.39568 -3.22894 
1033 2 2.12934 4.68305 -3.79389 
1499 2 2.43177 5.18415 -4.61972 
959 1 1.91621 5.71736 -3.4597 
1875 2 4.26923 5.66727 -3.98654 
166 1 4.12128 4.78576 -4.69985 
1854 2 3.04931 5.30868 -4.17261 
1405 2 3.61997 5.23935 -3.58088 
473 1 5.74433 5.35228 -4.58026 
1764 2 5.13674 5.93402 -3.4673 
946 1 5.81912 5.09639 -3.79949 
835 1 4.95346 4.91564 -4.24475 
2016 2 -4.77806 -5.82438 -1.86778 
1203 2 -5.24942 -5.48343 -3.10093 
988 1 -5.34507 -4.69872 -1.92645 
1604 2 -4.59317 -5.0162 -3.56636 
1633 2 -3.83182 -5.10508 -2.6586 
1122 2 -4.72227 -5.39996 -2.47026 
1008 1 -2.4662 -5.73996 -3.11678 
1261 2 -3.04213 -5.05808 -2.53166 
326 1 -1.08588 -5.13869 -2.58317 
295 1 -1.22599 -5.40377 -1.81636 
531 1 -1.99222 -5.76655 -2.37273 
107 1 -0.35239 -4.88489 -2.72056 
249 1 0.457293 -4.81977 -1.83117 
1081 2 1.93045 -5.56699 -2.08309 
1828 2 1.65451 -5.33807 -2.96301 
1930 2 1.10909 -5.56652 -2.09656 
1198 2 2.58617 -4.77428 -3.2794 
1530 2 3.42871 -4.9346 -1.82731 
2019 2 2.49435 -5.13464 -2.56395 
847 1 4.42336 -5.51301 -2.91648 
586 1 3.57205 -5.76836 -3.18477 
182 1 3.85187 -5.78622 -2.34181 
284 1 -5.95428 -4.90165 -2.56517 
1090 2 5.85448 -5.84303 -3.10069 
153 1 4.99831 -4.97041 -3.24396 
542 1 4.88222 -5.35332 -2.10182 
1655 2 -5.87415 -3.64562 -2.36093 
2010 2 -5.014 -3.2926 -2.13691 
798 1 -4.70842 -4.37832 -2.26318 
802 1 -5.38039 -4.30928 -3.07487 
878 1 -4.5818 -4.04287 -2.95633 
991 1 -3.89703 -4.0193 -2.45097 
524 1 -3.09064 -3.92408 -2.2804 
1548 2 -2.7858 -4.53831 -3.13682 
269 1 -2.57656 -3.23002 -3.10289 
411 1 -2.22837 -3.4772 -2.27193 
1394 2 -1.99223 -4.44861 -2.60137 
844 1 -1.41442 -3.14818 -2.38853 
1783 2 -1.2784 -3.99145 -3.0154 
938 1 0.396099 -4.56204 -2.86449 
1477 2 -0.456108 -3.825 -2.58214 
1457 2 0.184489 -3.54173 -2.20714 
661 1 1.25702 -4.34569 -2.6232 
1894 2 0.87661 -3.18565 -2.39509 
1001 1 2.72928 -3.6919 -3.04272 
1019 1 2.05788 -4.2097 -2.57257 
1737 2 4.30759 -4.25901 -2.92481 
385 1 3.63434 -3.31767 -2.67752 
1129 2 4.0103 -4.65708 -2.28983 
1765 2 3.27557 -4.92893 -2.70485 
1844 2 5.26961 -3.75833 -2.77822 
1817 2 -5.49778 -3.05442 -2.99661 
734 1 -5.67579 -2.51545 -2.03056 
1442 2 -4.1936 -3.04649 -2.41601 
1911 2 -3.56332 -2.62365 -2.86424 
1478 2 -3.04624 -2.57202 -2.22342 
1781 2 -2.4771 -2.58884 -1.60587 
1537 2 -2.69939 -2.21437 -2.85399 
1296 2 -1.95561 -2.06758 -2.47208 
677 1 -1.82331 -2.89614 -3.04128 
388 1 -0.630014 -2.80008 -2.25397 
599 1 -0.887957 -2.56753 -3.1008 
597 1 0.0212485 -2.40697 -3.18995 
11 1 0.256823 -2.44524 -2.16529 
1947 2 1.38173 -2.81373 -3.17434 
998 1 0.836177 -2.00969 -2.95795 
1923 2 2.4359 -2.66147 -2.99852 
1973 2 1.99746 -2.95924 -2.43553 
1066 2 3.14326 -2.48158 -2.1889 
1946 2 3.18458 -2.07048 -3.08535 
914 1 4.42475 -3.08971 -2.49264 
1787 2 3.90027 -1.94859 -2.81529 
968 1 5.76809 -2.24674 -3.12876 
213 1 5.57819 -3.06805 -1.63156 
754 1 4.94887 -2.50834 -3.21454 
311 1 5.30859 -2.79073 -2.45227 
471 1 -5.11996 -2.14084 -2.71886 
1634 2 -5.84193 -0.79825 -3.16836 
1826 2 -5.30834 -1.0353 -2.51234 
1792 2 -4.51138 -0.700272 -2.65516 
917 1 -4.30052 -1.84748 -2.62554 
2035 2 -4.49708 -0.999099 -1.88453 
344 1 -4.47228 -2.12948 -1.88027 
717 1 -2.41306 -1.13545 -2.35748 
848 1 -2.50823 -0.906406 -3.16374 
615 1 -1.72591 -0.579233 -3.39527 
117 1 -3.24477 -1.34682 -2.4185 
1456 2 -1.40876 -1.64598 -3.26639 
234 1 -1.11478 -0.948342 -1.86826 
1086 2 -1.10604 -1.90202 -2.35312 
1517 2 -0.49335 -1.53802 -2.87258 
1635 2 0.479504 -1.07981 -2.73781 
691 1 1.73195 -1.69805 -2.92069 
377 1 1.96403 -2.01201 -2.06289 
1819 2 1.43598 -0.871803 -2.5889 
116 1 2.69271 -1.16094 -2.86428 
700 1 3.44313 -1.00158 -2.72332 
846 1 4.17681 -0.859181 -2.3387 
1167 2 4.85648 -1.73315 -2.47174 
1641 2 5.46162 -1.3113 -2.80612 
279 1 4.92891 -0.73101 -2.04364 
900 1 -5.19652 0.223191 -2.92052 
818 1 -5.26726 -0.0110247 -1.97361 
297 1 -5.92177 -0.0164694 -2.44953 
1754 2 -3.77247 -0.311847 -3.24236 
824 1 -4.57352 0.365468 -2.32708 
1206 2 -3.77688 -0.631074 -2.2194 
1550 2 -1.95828 0.300112 -2.97362 
1184 2 -3.05324 -0.176287 -2.78779 
1104 2 -2.34306 -0.0511372 -2.10275 
1834 2 -1.61995 0.0253595 -1.88832 
749 1 -0.191905 0.118492 -3.44703 
499 1 -1.55108 -0.887466 -2.57139 
1436 2 -0.843786 0.449627 -1.791 
886 1 -0.671771 -0.57054 -2.45216 
776 1 -0.0115448 -0.245012 -2.6513 
408 1 0.935584 0.187772 -2.66346 
50 1 1.78019 0.395679 -2.39904 
1952 2 3.33197 0.00964157 -2.91198 
1916 2 2.3315 -0.288821 -2.90985 
1529 2 2.96531 -0.253397 -2.10922 
125 1 4.24863 -0.543245 -3.15181 
1468 2 3.95962 0.206863 -2.42847 
1220 2 3.98659 0.685819 -3.3567 
872 1 5.63237 0.187623 -3.42498 
241 1 5.10575 -0.282731 -2.81763 
654 1 5.74677 -0.597744 -1.72894 
1728 2 -5.28257 1.37166 -3.00011 
1986 2 -5.10056 1.20718 -2.05341 
1803 2 -5.84869 0.909004 -2.60506 
230 1 -4.09529 0.677656 -2.97034 
1720 2 -4.37752 1.74659 -2.48998 
613 1 -3.28538 0.887246 -2.40425 
489 1 -2.39362 1.23837 -2.79354 
259 1 -1.72138 1.351 -2.03329 
1643 2 -1.25491 0.671924 -2.53123 
585 1 -1.38204 1.67535 -2.88233 
1050 2 -0.461282 0.845256 -2.85518 
1683 2 -0.0967295 0.778555 -1.99793 
1999 2 0.264829 1.41256 -3.12845 
301 1 -0.292524 2.22189 -2.60512 
1642 2 0.498057 1.1341 -2.30298 
1967 2 1.0608 1.77428 -2.87053 
1158 2 1.54728 1.4484 -2.03836 
232 1 2.38124 0.860021 -3.17127 
1994 2 2.11957 1.79384 -2.54209 
110 1 3.08204 1.08777 -2.60398 
944 1 3.92441 1.53034 -2.65367 
621 1 4.18958 1.84985 -3.38262 
95 1 4.6672 1.51587 -2.03655 
1361 2 4.61217 0.70518 -2.70715 
1564 2 5.30676 0.783241 -2.07056 
1320 2 5.32128 1.06559 -3.10288 
811 1 -5.5001 2.83622 -3.17559 
381 1 -4.60467 2.81571 -2.47766 
298 1 -5.45118 2.3832 -2.5014 
1839 2 -3.65315 2.21344 -3.06886 
16 1 -3.62831 3.09471 -2.47779 
1794 2 -3.13896 2.07182 -2.4627 
1485 2 -2.40547 2.5247 -2.90653 
1304 2 -1.62512 3.03854 -2.97512 
1689 2 -1.80023 2.44808 -2.32927 
1247 2 -0.77148 3.14394 -2.40241 
561 1 -0.117265 2.71502 -3.37897 
240 1 0.424319 2.37637 -2.13835 
823 1 -0.151966 1.8135 -1.55249 
1616 2 -0.0420804 3.12593 -1.65548 
552 1 1.32576 2.98643 -2.95739 
896 1 1.27022 2.51073 -2.20892 
937 1 2.12602 3.02532 -2.46752 
1686 2 3.22642 2.16849 -2.2752 
828 1 2.9249 3.17457 -2.12741 
1026 2 4.19948 3.0903 -3.15395 
1786 2 3.96182 2.53301 -2.24503 
1866 2 4.68589 2.76151 -2.27991 
351 1 5.71772 1.85721 -2.24248 
702 1 4.95098 1.83786 -2.7157 
7 1 5.57012 2.32803 -3.0799 
1811 2 5.51567 2.82343 -1.85995 
1330 2 -5.86865 3.39356 -2.28441 
1662 2 -4.57478 4.14032 -2.7048 
1072 2 -3.748 4.55339 -3.13516 
1419 2 -3.26218 4.36481 -2.30344 
1287 2 -3.9659 3.91346 -2.09887 
276 1 -2.62713 4.06716 -3.69343 
460 1 -2.7089 3.40242 -2.48664 
323 1 -3.17832 3.74389 -3.13922 
516 1 -2.127 3.49548 -1.98615 
772 1 -2.10227 3.91543 -2.85858 
568 1 -1.30505 4.35319 -3.02571 
26 1 -0.968414 4.20783 -2.06322 
1607 2 -0.783693 3.48227 -3.23973 
1926 2 0.689425 3.96345 -3.21255 
1183 2 0.581461 3.4683 -2.10899 
1756 2 0.0670118 3.6945 -2.69977 
733 1 -0.187844 4.41377 -2.01555 
1161 2 1.14182 3.92476 -2.54299 
1668 2 2.23736 4.31888 -2.97042 
394 1 2.21036 3.34547 -3.25724 
1267 2 2.795 4.38371 -2.15642 
143 1 3.02976 3.65545 -2.77829 
181 1 4.24049 4.06122 -2.87074 
906 1 3.93522 3.57048 -2.32947 
1554 2 5.22155 3.19832 -2.77788 
650 1 4.87399 4.11467 -2.35049 
370 1 -5.78033 4.87799 -2.80806 
443 1 -4.98913 5.02342 -2.37105 
1362 2 -5.70939 5.87179 -2.32491 
589 1 -4.19138 5.26215 -2.53345 
119 1 -3.34601 5.8472 -3.16596 
1191 2 -1.88866 5.44797 -3.63773 
1757 2 -2.62372 4.95249 -3.13616 
1014 1 -3.30908 5.4581 -2.34818 
1601 2 -2.32613 4.80628 -2.3746 
1957 2 -1.586 5.26903 -2.68345 
1503 2 -0.200284 5.95858 -2.7787 
1818 2 -0.733514 5.4547 -2.20351 
564 1 -0.255221 4.81898 -3.09132 
1344 2 0.238917 5.78282 -1.90631 
736 1 0.399969 5.095 -2.62283 
422 1 1.29132 5.21857 -2.50046 
1042 2 2.70198 4.95201 -3.37453 
487 1 2.10944 5.44441 -2.66879 
1013 1 2.83511 5.78876 -2.76806 
1178 2 4.245 4.98659 -2.35155 
1234 2 3.39791 4.89724 -2.7742 
1318 2 4.44735 5.31706 -3.14893 
918 1 5.09036 4.45457 -3.26708 
1100 2 5.16834 5.42314 -2.58662 
724 1 -5.52248 -5.3828 -0.812198 
666 1 -4.80767 -4.95003 -1.23743 
1418 2 -4.00308 -5.62045 -1.82776 
1312 2 -3.90665 -5.81902 -0.96212 
483 1 -4.26224 -4.91344 -0.570369 
1663 2 -3.244 -5.37306 -1.56464 
1285 2 -2.54829 -5.07761 -1.92944 
1047 2 -2.52286 -5.16331 -1.02088 
1209 2 -1.52699 -4.76004 -0.935407 
954 1 -1.09627 -5.76659 -1.10372 
459 1 -0.338485 -5.26805 -1.86122 
245 1 0.825046 -5.06386 -1.0489 
85 1 1.38984 -4.6212 -1.69164 
981 1 1.77713 -4.87619 -0.889028 
1611 2 1.93401 -5.82263 -1.14286 
2004 2 2.75757 -5.53483 -1.536 
2017 2 3.45894 -5.33169 -0.844796 
1471 2 4.30449 -4.89688 -1.16159 
130 1 4.2766 -5.87731 -1.70187 
864 1 5.70566 -5.31779 -1.74864 
452 1 5.02783 -5.8096 -1.26545 
456 1 5.70707 -5.82048 -0.59924 
1201 2 -5.53596 -3.95235 -1.33126 
1240 2 5.7683 -4.50364 -0.796614 
1217 2 -4.75917 -4.01544 -0.575914 
246 1 -3.88352 -4.49898 -1.6022 
1948 2 -4.63437 -3.70266 -1.4124 
441 1 -3.01003 -4.16913 -1.57039 
816 1 -2.42952 -3.76207 -1.40844 
71 1 -2.38197 -4.28771 -0.572233 
986 1 -1.40875 -3.38232 -1.58907 
1807 2 -1.80896 -4.46161 -1.78125 
1452 2 -0.942048 -4.2612 -1.96398 
1280 2 -0.724887 -4.57222 -0.905555 
1753 2 0.20435 -4.21124 -0.694039 
1613 2 -0.128162 -4.09571 -1.55778 
457 1 0.135129 -3.21889 -0.640023 
1896 2 1.78087 -3.41093 -1.64754 
1942 2 0.824563 -3.73035 -1.55004 
328 1 2.21621 -4.64587 -1.62871 
100 1 3.0668 -4.0287 -2.37785 
976 1 2.65875 -4.58303 -0.861533 
1586 2 1.72265 -3.67747 -0.754869 
321 1 3.83001 -3.70281 -1.80944 
522 1 2.80029 -3.99802 -1.629 
137 1 4.19229 -3.83303 -0.977562 
1409 2 5.04354 -4.53519 -1.2974 
928 1 4.64938 -3.22521 -1.75367 
1521 2 5.56446 -4.12921 -1.79196 
2002 2 4.83503 -4.26876 -2.12696 
58 1 -5.08571 -2.56935 -1.37321 
275 1 -5.79682 -3.00165 -1.09449 
532 1 -4.66685 -2.81786 -0.575434 
291 1 -4.0572 -2.42662 -1.10691 
2007 2 -3.73423 -3.14256 -1.81089 
1069 2 -3.0188 -3.19392 -1.08426 
682 1 -3.27969 -2.11367 -0.992048 
1289 2 -1.45572 -2.33181 -1.5911 
1993 2 -2.08732 -2.73237 -0.947587 
1883 2 -0.428849 -2.06267 -1.38726 
324 1 -0.460202 -3.08396 -1.4674 
573 1 0.463949 -2.74758 -1.25944 
1808 2 -0.0414717 -1.94107 -0.729446 
566 1 1.13165 -2.29675 -1.93338 
211 1 1.40352 -2.59619 -1.06942 
1798 2 2.65186 -3.33171 -0.70762 
1770 2 2.58031 -3.00383 -1.78493 
106 1 2.13415 -2.05451 -1.31427 
1123 2 3.38324 -2.90803 -1.46847 
1708 2 4.13309 -2.22142 -1.97501 
1148 2 4.13568 -2.57367 -1.19934 
1279 2 4.96202 -1.99208 -1.66157 
602 1 5.03524 -3.38743 -1.07941 
1352 2 4.91559 -2.27743 -0.863696 
1237 2 5.85439 -1.7562 -1.13142 
1128 2 -5.27852 -1.41568 -1.50331 
1299 2 5.86721 -1.52534 -2.01462 
99 1 -3.64576 -1.89606 -1.7791 
1972 2 -3.697 -0.956447 -1.17593 
1174 2 -4.34403 -1.4814 -0.776465 
1432 2 -2.99891 -0.880188 -0.713332 
767 1 -2.69393 -1.47086 -1.64631 
548 1 -2.4365 -1.84209 -0.923486 
419 1 -0.719052 -1.07183 -1.03118 
37 1 -1.82838 -1.28774 -1.50968 
1682 2 -0.138691 -1.61542 -2.04772 
1057 2 0.726076 -1.40638 -1.81531 
625 1 0.269789 -0.675001 -0.942971 
2046 2 0.627718 -1.61563 -0.983871 
1360 2 1.44832 -1.07218 -1.61631 
1505 2 2.13033 -0.655567 -1.96635 
199 1 2.55245 -1.58899 -2.22584 
1758 2 1.83396 -1.2173 -0.857824 
626 1 2.93457 -1.9389 -1.12766 
867 1 3.63345 -1.28328 -1.87277 
198 1 4.55831 -1.09175 -1.40635 
983 1 3.84081 -1.62348 -0.958868 
518 1 5.32202 -0.816792 -0.998569 
737 1 4.68903 -1.34239 -0.337207 
692 1 -5.46403 -0.377566 -1.20594 
1672 2 -5.71343 0.46561 -0.739309 
472 1 -4.83592 -0.552884 -0.434461 
876 1 -4.59084 -0.136785 -1.23919 
912 1 -3.89157 0.440018 -1.79401 
307 1 -3.84626 0.0812516 -0.870206 
921 1 -3.06416 0.582211 -1.36367 
1589 2 -3.08209 -0.476923 -1.78128 
1310 2 -2.43046 -0.436685 -1.25251 
1149 2 -0.452356 0.11194 -1.009 
1893 2 -1.54657 -0.205416 -1.12131 
963 1 -0.385462 -0.676653 -1.64083 
1187 2 0.226702 0.686301 -1.24551 
121 1 0.532591 -0.190027 -1.88153 
874 1 1.42418 0.00103119 -1.72445 
1386 2 1.04979 0.656809 -0.779258 
160 1 1.38419 -0.205396 -0.780356 
243 1 2.20499 0.155442 -1.17419 
1680 2 2.54148 -0.816856 -1.32367 
870 1 2.96544 0.365273 -0.74039 
2027 2 3.54188 -0.237335 -1.57848 
2030 2 4.52768 0.171588 -1.65963 
1858 2 4.24125 -0.165042 -0.96156 
1897 2 3.36446 -0.58692 -0.760934 
1508 2 5.02628 0.0422255 -0.501141 
1059 2 5.37619 0.35877 -1.27935 
1724 2 -5.81594 0.850662 -1.51726 
2038 2 -5.02648 0.983943 -1.13442 
557 1 -5.81037 1.78022 -1.14175 
1282 2 -4.35802 1.33153 -1.65367 
1092 2 -3.72608 1.70078 -2.1515 
1170 2 -3.7354 1.3921 -0.916547 
94 1 -2.48115 1.00587 -1.8862 
1520 2 -3.21277 1.64438 -1.4559 
397 1 -1.99654 0.813906 -1.1412 
134 1 -0.928411 1.67532 -2.07731 
910 1 -1.03431 1.16265 -1.20687 
115 1 -0.405699 1.47356 -0.759131 
1297 2 0.912843 0.991461 -1.63322 
660 1 0.495618 1.80715 -0.785223 
747 1 0.735755 2.17752 -1.45716 
1340 2 1.76385 1.06845 -0.98138 
1838 2 2.46927 1.38708 -0.887416 
171 1 2.43834 0.715713 -2.00075 
1712 2 2.38627 1.77756 -1.66891 
1065 2 3.30109 1.82898 -1.42364 
1726 2 3.2911 1.64771 -0.496977 
464 1 2.99854 0.818059 -1.40028 
104 1 3.70018 1.00851 -1.9313 
1017 1 3.84506 0.787354 -0.747892 
783 1 4.43756 1.16328 -1.27757 
194 1 5.31033 1.59697 -1.37865 
920 1 5.31292 1.29244 -0.63696 
1669 2 -5.3362 3.224 -1.394 
1853 2 -4.79164 3.09156 -0.752857 
966 1 -5.35856 2.27069 -1.72388 
761 1 -3.8732 2.65124 -1.726 
879 1 -3.28609 2.63956 -0.971258 
294 1 -4.62328 2.43412 -1.6392 
322 1 -2.87706 3.05129 -1.69777 
2021 2 -2.52855 2.06488 -1.92123 
520 1 -2.2453 3.09919 -1.09334 
2047 2 -1.78268 2.15326 -1.35823 
1679 2 -1.11193 2.68428 -1.74525 
1727 2 -1.22403 2.05255 -0.788892 
1981 2 -0.531106 2.60412 -1.11071 
1071 2 0.777069 3.27231 -1.02996 
114 1 1.49557 2.16804 -1.11898 
945 1 2.07028 2.72128 -1.71327 
183 1 2.77539 2.73544 -1.03139 
1368 2 4.11905 2.29359 -1.47659 
1276 2 4.96574 2.56258 -1.40413 
1134 2 3.99861 1.93608 -0.691786 
1399 2 5.87364 2.82917 -1.00711 
1971 2 -5.04351 3.66087 -2.00043 
506 1 -5.67891 4.02051 -0.895427 
1275 2 -3.54968 3.82402 -1.36769 
1056 2 -4.41682 3.55679 -1.33813 
1335 2 -2.86179 4.2893 -1.66631 
1627 2 -2.91066 3.87708 -0.836729 
1992 2 -2.20922 4.48991 -1.29469 
1814 2 -1.11869 4.9133 -1.07479 
86 1 -1.53841 3.69228 -1.42872 
418 1 -0.565179 3.90821 -1.20232 
165 1 0.672362 4.54981 -1.88729 
627 1 0.199338 4.25637 -1.22365 
905 1 1.12428 4.38385 -1.02417 
1997 2 1.33436 3.46335 -1.60152 
1428 2 1.94138 3.96084 -2.02885 
1913 2 2.15238 3.50856 -0.964962 
1107 2 2.60038 3.96459 -1.37022 
510 1 3.51151 3.31337 -1.5107 
1842 2 3.60144 4.48611 -1.97574 
379 1 4.64428 3.34547 -0.989274 
1868 2 3.34915 4.2946 -1.03671 
355 1 5.72799 4.41894 -2.17583 
582 1 4.57419 3.6395 -1.74986 
952 1 5.48158 3.90865 -1.60907 
579 1 -5.48878 4.52787 -1.70571 
641 1 -4.78369 4.42474 -0.999768 
1822 2 -5.50997 5.63916 -1.32497 