ITEM: TIMESTEP
13100
ITEM: NUMBER OF ATOMS
2048
ITEM: BOX BOUNDS pp pp pp
-5.9367291777451410e+00 5.9367291777451410e+00
-5.9367291777451410e+00 5.9367291777451410e+00
-5.9367291777451410e+00 5.9367291777451410e+00
ITEM: ATOMS id type x y z 
435 1 -5.81055 5.96553 -5.87997 
1849 2 -5.72097 -4.94082 -4.90989 
1633 2 -5.14307 -4.526 -5.37817 
2016 2 -4.59829 -4.74244 -4.53669 
440 1 -4.90779 -5.52474 -5.85148 
554 1 -4.1688 -5.19075 -5.71655 
333 1 -3.62837 -5.3337 -5.0198 
473 1 -4.43556 -5.73503 -4.89561 
91 1 -3.19998 -4.87383 -5.52238 
1138 2 -2.61504 -5.75501 -5.68086 
247 1 -2.64538 -4.88017 -4.90619 
1291 2 -1.37166 -5.80811 -4.67695 
416 1 -1.87599 -4.66345 -4.99957 
1958 2 -1.73075 -5.53281 -5.51577 
2029 2 -1.18316 -5.23078 -5.8817 
1035 2 -0.64174 -5.2729 -5.14829 
1429 2 0.229653 -5.19579 -4.79227 
1746 2 0.00215148 -4.84685 -5.69416 
503 1 1.70936 -5.40322 5.86554 
1709 2 0.817811 -4.69136 -5.47207 
673 1 1.67143 -5.71213 -5.02844 
648 1 2.32595 -5.26368 -5.28048 
49 1 3.33904 -5.12786 -4.9626 
64 1 3.03136 -4.77742 -5.79855 
57 1 4.16852 -4.78223 -4.43079 
1875 2 4.13227 -5.73849 -5.62768 
1799 2 5.7475 -4.97143 -5.6361 
1192 2 4.95142 -5.44541 -5.10747 
1931 2 5.06304 -5.20326 -5.89645 
511 1 -5.37602 -3.40245 -5.0991 
1663 2 -4.07577 -4.37891 -5.05046 
273 1 -4.46169 -3.55339 -4.54149 
1103 2 -4.32015 -4.18543 -5.78758 
1602 2 -3.53036 -3.8905 -5.8001 
1261 2 -3.21459 -3.93123 -5.07684 
530 1 -2.1712 -4.31585 -5.85023 
1231 2 -2.80982 -3.54132 -5.67767 
2009 2 -2.2045 -3.54077 -4.96607 
227 1 -0.747543 -4.3495 -4.96996 
924 1 -1.38625 -4.21669 -5.49338 
819 1 -0.225096 -3.81923 -5.69822 
413 1 0.252475 -3.82382 -4.91408 
136 1 0.753948 -3.55649 -5.57705 
1790 2 1.28616 -4.31233 -5.9299 
1678 2 1.8419 -4.33186 -5.15659 
547 1 1.19451 -3.50366 -4.86983 
1737 2 2.73351 -3.88936 -5.02701 
1705 2 2.33561 -3.88294 -5.8792 
1232 2 3.45437 -3.54073 -5.5204 
1902 2 3.78965 -3.80304 -4.65879 
19 1 3.89817 -4.67016 -5.37504 
1129 2 4.57202 -3.40077 -4.91299 
223 1 5.33537 -3.84667 -5.70871 
496 1 4.66981 -4.32409 -5.18176 
373 1 5.74887 -3.93267 -4.98943 
1588 2 -5.20375 -2.32104 -5.53222 
1937 2 -5.28388 -2.59043 -4.61171 
1243 2 -4.49216 -2.23199 -4.98839 
269 1 -3.23021 -2.46658 -5.8945 
353 1 -4.60969 -3.42216 -5.39188 
218 1 -3.8859 -3.03801 -5.37653 
664 1 -3.03819 -2.66333 -5.0563 
387 1 -2.40737 -2.13116 -5.75956 
196 1 -2.11916 -2.46319 -4.85371 
151 1 -1.62298 -2.02123 -5.35961 
1379 2 -1.6412 -3.16822 -5.57698 
35 1 -0.918068 -2.05153 -4.89962 
1255 2 -0.676404 -2.91985 -5.33945 
1370 2 -1.11667 -3.38341 -4.73933 
1763 2 0.167375 -2.79987 -4.7472 
1909 2 0.491903 -2.33146 -5.44969 
1495 2 -0.0364212 -2.34564 5.81519 
1525 2 1.02715 -2.54397 -4.47283 
1820 2 1.16825 -1.92315 -5.40535 
1190 2 1.83513 -2.03334 -4.74974 
1 1 1.42364 -2.96733 -5.68163 
939 1 2.12673 -2.91564 -5.22103 
277 1 2.78778 -2.91826 -4.85781 
485 1 3.47501 -2.38266 -5.36182 
1070 2 4.1892 -3.1782 -5.76526 
904 1 4.19039 -2.36792 -4.88191 
1475 2 4.95502 -2.82498 -5.54827 
1465 2 5.80593 -2.69112 -4.97683 
1872 2 5.75046 -2.36963 -5.75953 
833 1 -4.67363 -0.883148 -5.44192 
205 1 -5.54428 -1.5363 -4.91924 
161 1 -4.8848 -1.28342 -4.51542 
1745 2 -3.59627 -1.81201 -4.98204 
1341 2 -4.08069 -1.76882 -5.69618 
214 1 -4.10018 -0.831761 -4.70117 
1733 2 -2.7799 -1.28293 -5.24473 
1809 2 -1.90242 -1.20361 -4.79277 
1345 2 -1.76405 -0.783249 -5.5254 
1478 2 -1.18461 -1.20014 -4.31183 
1572 2 -1.06595 -0.599045 -5.17836 
595 1 -1.1762 -1.65797 5.88865 
830 1 -0.44628 -1.47271 -5.46356 
8 1 0.279505 -1.32105 -5.00997 
768 1 0.976896 -0.922071 -5.23922 
674 1 1.42021 -1.0165 -4.57828 
1964 2 2.2926 -1.55445 -5.55976 
1775 2 3.14344 -1.582 -4.98478 
609 1 4.46126 -1.85545 -5.48344 
1224 2 3.71763 -1.04029 -5.58274 
1332 2 4.4175 -0.545012 -5.33135 
2036 2 4.21761 -1.10959 -4.68746 
771 1 5.90623 -1.21258 -5.7386 
740 1 5.24772 -1.73483 -5.17925 
1623 2 5.08977 -0.764621 -4.69265 
1498 2 -5.34765 0.0973315 -5.47412 
1346 2 -4.73718 0.00492757 -4.56336 
505 1 -4.05012 -0.486476 -5.7561 
2028 2 -4.37791 0.397129 -5.32515 
1256 2 -3.47328 0.677797 -4.86689 
451 1 -2.41112 0.11032 -5.17571 
701 1 -3.45705 -0.469184 -4.90121 
55 1 -3.14152 -0.104033 -5.66616 
374 1 -1.76139 0.480349 -5.64067 
827 1 -1.35936 0.417403 -4.94861 
1975 2 -0.570623 -0.0400195 -5.71938 
1573 2 -0.345968 -0.580986 -4.61056 
1223 2 0.0734546 -0.204401 -5.25556 
1963 2 1.0699 0.373303 -5.72121 
1180 2 1.74303 0.356299 -4.85108 
31 1 1.97594 -0.594984 -5.35839 
1777 2 0.804698 0.0711198 -4.80864 
195 1 3.27325 -0.189808 -5.09367 
138 1 2.87318 0.0102617 -5.69938 
1785 2 2.15608 0.776009 -5.44766 
560 1 2.6235 -0.734375 -4.64027 
758 1 3.85281 0.289579 -5.34172 
299 1 4.49847 0.315671 -4.68617 
1634 2 5.91036 -0.283885 -4.97729 
1494 2 5.06825 -0.365516 -5.67469 
656 1 -5.44464 1.41027 -5.69152 
338 1 -4.85137 1.28585 -4.87017 
420 1 5.63466 0.982361 -5.46931 
752 1 -4.7115 1.69174 -5.79155 
1343 2 -3.97417 0.783706 5.94598 
190 1 -4.01342 1.54903 -5.261 
1736 2 -2.69611 1.0031 -4.697 
1050 2 -2.33337 1.37734 -5.50848 
1058 2 -3.05399 1.00068 -5.75069 
212 1 -0.846 0.886193 -5.60955 
1054 2 -1.67843 1.34511 -4.77364 
1063 2 -1.32848 1.82157 -5.44913 
842 1 -0.228907 0.828043 -4.81731 
408 1 0.6246 1.05319 -4.53247 
1364 2 -0.519036 1.90356 -5.06594 
156 1 -0.012954 1.13305 -5.58705 
551 1 0.968818 1.29938 -5.24728 
760 1 1.69175 1.64125 -5.26173 
1470 2 2.78621 0.679606 -4.77714 
1845 2 3.58406 1.36783 -5.33081 
1226 2 4.35049 1.62474 -5.71836 
1497 2 4.58666 1.40706 -4.79645 
1204 2 3.63867 0.999961 -4.54899 
60 1 4.96652 0.655068 -5.42498 
1431 2 5.22841 2.02527 -5.41753 
1068 2 5.47688 1.7339 -4.69041 
1403 2 -5.63161 2.29958 -4.93404 
1716 2 -4.81169 2.50067 -5.08984 
1620 2 -4.3856 3.01607 -5.69463 
1175 2 -3.74223 2.97925 -5.18429 
697 1 -3.18443 2.04407 -5.47829 
820 1 -2.28152 2.25033 -4.82444 
494 1 -2.45766 2.53853 -5.72168 
982 1 -1.33813 2.55009 -4.77185 
852 1 -1.71988 2.80058 -5.62795 
1884 2 0.00132637 2.25442 -5.763 
310 1 -0.64783 2.9568 -5.33981 
1653 2 0.517592 2.24047 -5.00861 
561 1 0.234983 3.27393 -5.05411 
1506 2 1.12187 2.58733 -5.39616 
1769 2 1.47169 2.49055 -4.5338 
895 1 2.46649 2.01952 -5.47227 
1011 1 3.03743 2.07463 -4.62856 
1628 2 2.17011 2.89044 -5.12989 
621 1 4.23618 2.34229 -4.53647 
574 1 3.75102 2.43583 -5.20715 
869 1 4.26057 2.82206 5.81663 
396 1 4.71073 2.80588 -5.20258 
178 1 5.22567 3.12709 -5.76737 
204 1 5.78224 3.22272 -4.93138 
1810 2 -5.79867 2.34887 -5.57341 
923 1 -4.83287 3.70146 -5.03743 
644 1 -5.67116 3.59269 -5.59178 
45 1 -4.93497 3.87263 -5.87389 
797 1 -3.96761 4.37913 -5.81385 
92 1 -3.93748 4.13687 -5.01223 
687 1 -3.15299 4.53945 -5.11785 
1824 2 -2.52149 3.38986 -4.94084 
1096 2 -2.41847 3.86242 5.9324 
1869 2 -3.13066 3.53067 -5.54801 
1336 2 -1.77205 3.73341 -5.14718 
1161 2 -0.887395 3.92752 -4.88973 
1228 2 -1.60585 4.11688 5.8573 
1596 2 -0.983313 4.66305 5.74797 
1145 2 -0.356795 4.44549 -5.43201 
593 1 0.390678 3.67753 -5.84818 
56 1 1.07473 3.65293 -5.14658 
709 1 1.96685 4.06699 -5.23266 
1979 2 2.76879 3.41259 -5.55854 
716 1 2.44517 4.47981 -5.67477 
1274 2 3.42061 3.26514 -4.94511 
884 1 2.87222 4.22411 -4.68258 
1342 2 3.795 3.70462 -5.65681 
1618 2 4.34505 3.67844 -4.84132 
1779 2 4.87841 4.11413 -5.46832 
1073 2 5.44043 4.17933 -4.80421 
412 1 -5.28858 5.91845 -5.12227 
1640 2 5.8538 4.72214 -5.35989 
1088 2 -5.08909 4.86708 -5.46887 
1365 2 -3.41363 5.63267 -5.71481 
1353 2 -4.2095 5.34689 -5.68369 
1038 2 -3.73124 5.33463 -4.92526 
729 1 -2.79468 4.81901 5.81089 
1526 2 -2.94502 5.4935 -4.92861 
638 1 -2.18887 4.79806 -5.16614 
1542 2 -2.26747 5.86833 -4.82162 
87 1 -1.24192 5.1505 -5.31844 
237 1 -0.505591 5.34657 -4.77963 
495 1 0.330186 5.68385 -5.1038 
1306 2 0.446321 5.0113 -5.85559 
528 1 -0.314461 5.66515 -5.64851 
628 1 0.940585 -5.72534 -5.44141 
1039 2 1.52484 5.0317 -5.52934 
1033 2 2.31629 5.33775 -5.31658 
1093 2 2.82496 5.62087 -5.97697 
1593 2 2.90792 5.26981 -4.66212 
777 1 3.60556 4.55291 -5.16344 
946 1 4.02152 4.97909 -5.82187 
501 1 4.50245 5.03268 -5.06461 
1955 2 3.39633 5.80173 -5.21282 
1704 2 4.32228 5.94303 -4.49164 
825 1 5.54341 5.63275 -5.23832 
699 1 4.87952 5.37646 -5.8428 
1418 2 -5.27407 -5.24571 -4.26042 
1312 2 -4.7201 -5.1672 -3.37721 
1773 2 -5.91493 -5.58138 -3.7719 
14 1 -3.97749 -5.70403 -4.10211 
1394 2 -4.20342 -4.72117 -3.81409 
805 1 -3.06024 -5.41689 -4.29214 
274 1 -2.31172 -5.02029 -4.12947 
260 1 -2.49629 -5.33474 -3.4463 
855 1 -1.39367 -4.76409 -4.32613 
453 1 -1.55437 -5.24394 -3.30763 
1151 2 -1.19786 5.71097 -3.8667 
902 1 -0.573188 -4.79085 -3.77474 
1029 2 -0.468691 5.88125 -3.23404 
1334 2 -0.362897 -5.73816 -4.12589 
1260 2 0.379678 -5.48367 -4.03775 
1486 2 1.03339 -4.93795 -4.68992 
1082 2 1.15457 -5.16417 -3.77016 
575 1 2.5121 -5.5725 -4.52872 
1592 2 1.995 -4.7042 -4.31949 
425 1 3.26306 -5.81783 -3.30129 
1887 2 1.93672 -4.90703 -3.43385 
667 1 4.32431 -5.09543 -3.5606 
180 1 3.51725 -5.44811 -4.07792 
1358 2 5.47789 -5.4745 -4.42762 
809 1 5.02786 -4.55267 -4.36798 
131 1 5.14358 -4.86873 -3.49892 
1272 2 4.95386 -5.85432 -3.81835 
1604 2 5.56395 5.86412 -3.18113 
991 1 -5.27029 -3.91109 -4.2603 
878 1 -4.55364 -3.7444 -3.72411 
864 1 -5.3908 -4.35603 -3.55289 
1548 2 -3.54436 -4.33221 -4.2262 
483 1 -3.76142 -3.59001 -3.57768 
524 1 -3.60962 -3.19869 -4.48227 
1079 2 -2.68331 -4.19946 -3.49459 
1477 2 -2.62317 -3.96336 -4.41179 
1452 2 -1.85671 -4.13571 -3.55817 
313 1 -3.00246 -3.27225 -3.26846 
1581 2 -1.71746 -3.74753 -4.23539 
1848 2 -0.896043 -3.6777 -3.60562 
467 1 0.0452225 -4.33865 -4.21974 
782 1 0.598433 -4.44501 -3.39994 
1645 2 -0.423374 -3.27374 -4.15482 
1401 2 0.0292808 -3.55114 -3.30804 
122 1 1.01659 -4.08366 -4.1898 
1001 1 1.71551 -3.82098 -3.74985 
1836 2 2.96135 -4.35871 -4.28308 
1198 2 2.73997 -4.71284 -3.57578 
639 1 2.48642 -3.62227 -3.48033 
2010 2 4.46593 -3.60356 -4.01519 
1844 2 3.69379 -4.11004 -3.67978 
1655 2 5.54367 -3.42599 -3.5888 
339 1 5.82031 -4.36085 -4.0718 
1657 2 5.35489 -3.31497 -4.47465 
1664 2 -4.77205 -2.78443 -4.0173 
1871 2 -5.56571 -3.09407 -3.76794 
1924 2 -4.19034 -2.621 -3.39001 
1911 2 -3.93585 -2.18373 -4.24838 
1097 2 -3.37744 -2.23125 -3.65541 
236 1 -2.77992 -2.79343 -4.1995 
599 1 -2.12551 -2.92797 -3.67213 
657 1 -1.59255 -2.53338 -4.20962 
597 1 -0.812995 -2.35458 -3.90504 
573 1 -0.28577 -2.53535 -3.20927 
1555 2 0.505326 -3.13479 -3.94441 
1083 2 1.97292 -2.40673 -3.95369 
1982 2 1.18173 -3.02014 -3.61145 
403 1 2.03177 -3.38516 -4.44453 
1676 2 2.46662 -2.47505 -3.36394 
471 1 3.02504 -3.28901 -3.97113 
1326 2 3.09525 -2.06532 -3.75648 
602 1 3.70752 -2.7483 -4.38278 
140 1 4.40849 -2.61816 -3.54971 
999 1 4.93026 -2.38384 -4.3947 
784 1 5.61722 -2.29424 -3.57436 
66 1 5.71524 -1.90548 -4.40141 
291 1 -5.38239 -1.72949 -3.81137 
1826 2 -5.64566 -0.849201 -3.34327 
717 1 -4.37716 -1.40297 -3.95074 
704 1 -3.46645 -0.846915 -4.07985 
1271 2 -2.83471 -1.64124 -4.40381 
1867 2 -2.59427 -1.91612 -3.53021 
37 1 -2.66059 -0.744549 -3.58184 
1908 2 -1.9851 -1.65715 -4.02934 
1537 2 -1.29844 -1.53121 -3.44705 
1296 2 -0.571727 -0.963185 -3.87743 
1006 1 -0.17524 -1.83774 -4.40322 
11 1 0.245994 -2.02694 -3.66076 
1870 2 0.126708 -1.0178 -3.51401 
421 1 0.809776 -1.59632 -4.14136 
427 1 1.49588 -1.60533 -3.54605 
1259 2 2.67045 -1.96734 -4.54864 
116 1 3.19444 -0.714238 -3.96943 
866 1 2.16166 -1.15281 -4.01915 
1363 2 3.59613 -1.5971 -4.25385 
640 1 2.6046 -1.19991 -3.35401 
2048 2 3.98268 -1.77758 -3.50357 
1163 2 4.53378 -1.39669 -4.04957 
2001 2 5.66718 -0.895397 -4.03288 
1830 2 -5.5036 -0.51111 -4.34255 
1754 2 -4.76766 -0.407501 -3.57318 
1184 2 -3.13875 0.351428 -3.98844 
1111 2 -3.79051 -0.111867 -3.45919 
1962 2 -3.99728 0.235601 -4.34 
749 1 -2.70806 -0.444242 -4.40575 
1643 2 -2.25689 0.390994 -3.5433 
234 1 -1.9603 -0.553887 -3.51439 
517 1 -0.72899 0.402405 -4.29054 
789 1 -1.70115 -0.124924 -4.41108 
615 1 -1.09055 -0.187092 -3.54977 
1644 2 0.523045 -0.509656 -4.08681 
80 1 0.179004 0.501391 -3.92921 
1673 2 1.43342 -0.018054 -4.1111 
1502 2 2.08003 -0.167125 -3.32708 
1021 1 1.00033 0.833739 -3.78224 
1456 2 1.13973 -0.649739 -3.36442 
1412 2 2.35671 0.170842 -4.17277 
700 1 3.85133 -0.298535 -4.37591 
715 1 4.44582 -0.527188 -3.50655 
302 1 5.32205 0.431656 -4.63934 
469 1 4.77939 -0.0365359 -4.00291 
818 1 5.8043 0.361194 -3.90977 
872 1 5.39635 0.00463564 -3.30934 
32 1 -5.21691 0.783069 -3.98071 
915 1 -5.7417 0.927568 -4.86428 
1132 2 -5.90025 1.68864 -4.0901 
1877 2 -5.15404 1.62273 -3.36667 
230 1 -4.22268 1.37235 -4.40862 
164 1 -3.65624 1.36294 -3.72234 
278 1 -4.44301 0.885541 -3.62577 
689 1 -3.20049 1.82101 -4.50449 
489 1 -2.84066 1.5857 -3.76939 
1550 2 -2.04493 0.973443 -4.04205 
1149 2 -0.9689 1.38134 -4.24197 
1436 2 -1.32291 0.86051 -3.5736 
1386 2 -0.212597 1.51532 -3.54037 
1310 2 0.109539 1.82622 -4.38043 
254 1 1.49986 1.26259 -4.35961 
594 1 2.0778 1.21728 -3.84476 
1187 2 0.575681 1.74606 -3.34648 
894 1 2.32001 1.66946 -4.66995 
874 1 2.99535 1.49637 -3.79135 
1910 2 3.32415 0.455959 -3.91069 
731 1 4.07888 1.92079 -3.37895 
1861 2 4.26382 1.12887 -3.92097 
1654 2 5.60616 1.12015 -3.40763 
1172 2 5.12032 1.15146 -4.06393 
1377 2 -5.1689 2.06467 -4.2786 
188 1 -5.53684 3.23264 -4.25028 
69 1 -4.98654 3.1378 -3.57659 
631 1 5.86023 2.6638 -3.53026 
1728 2 -4.53809 2.12178 -3.79161 
1482 2 -4.19043 2.58988 -4.45997 
1142 2 -3.57743 2.59447 -3.72945 
1625 2 -3.10031 2.95554 -4.5507 
1794 2 -2.54331 2.94098 -3.90646 
903 1 -2.20138 2.04558 -4.04528 
1015 1 -0.675133 2.79123 -4.41057 
1607 2 -1.90085 3.19511 -3.53715 
686 1 -1.30791 2.31062 -3.83413 
843 1 0.203032 3.02808 -4.13462 
208 1 -0.429425 2.57518 -3.62041 
301 1 0.517711 2.83046 -3.3028 
1683 2 0.926115 2.10169 -4.05372 
2020 2 1.63444 2.03462 -3.43933 
885 1 1.08355 3.35784 -4.08737 
2039 2 2.76114 3.0185 -4.34505 
1999 2 2.21156 2.42396 -3.89059 
1214 2 3.41359 2.97219 -3.64519 
171 1 3.63427 2.00829 -4.14545 
1977 2 4.50091 3.23882 -3.658 
726 1 5.2701 2.70521 -4.42705 
702 1 4.89097 2.1745 -3.81086 
1048 2 -5.5576 4.52617 -4.64177 
1349 2 -5.93228 4.04454 -3.98668 
1575 2 -5.04305 4.46475 -3.81706 
755 1 -3.48987 3.86249 -4.27902 
676 1 -4.48334 3.58488 -4.19769 
446 1 -3.90088 3.44816 -3.61746 
1275 2 -4.17321 4.50061 -3.4516 
577 1 -2.70255 3.92479 -3.62934 
632 1 -2.59979 4.34931 -4.45561 
1268 2 -1.75005 3.46234 -4.33203 
1689 2 -1.10681 3.34244 -3.33064 
221 1 -1.85489 4.30756 -3.83378 
612 1 -1.2215 4.49166 -3.36559 
1926 2 -0.671722 3.81093 -3.98468 
1354 2 0.0616725 4.21783 -4.7163 
1372 2 0.189198 3.94373 -3.76123 
1183 2 0.954896 4.37311 -4.14798 
1071 2 1.73512 4.54797 -3.67025 
478 1 1.89953 3.4325 -3.83089 
76 1 1.9868 3.72477 -4.54202 
34 1 2.63933 3.80873 -3.67976 
256 1 3.48545 4.17662 -3.93414 
1562 2 3.90176 3.2941 -4.33674 
394 1 4.24383 4.18973 -3.33878 
1439 2 5.01397 3.62892 -4.19906 
1636 2 5.42275 3.57391 -3.37558 
775 1 4.89703 4.40257 -2.88381 
346 1 -4.89772 5.74074 -3.93928 
662 1 -5.67178 5.49187 -4.40431 
993 1 -5.53241 5.29074 -3.52978 
1413 2 -4.63536 4.96064 -4.7243 
1335 2 -3.80094 4.96449 -4.13712 
255 1 -4.19793 5.61175 -3.4086 
1757 2 -2.87984 5.26194 -4.0708 
428 1 -1.60674 4.6076 -4.70176 
340 1 -0.899082 4.82737 -4.24627 
1329 2 -2.11505 5.54714 -4.04472 
123 1 -0.0600116 5.05367 -4.11439 
568 1 -0.411074 4.80469 -3.34196 
1668 2 1.77148 4.9273 -4.68491 
2040 2 0.898586 4.65576 -5.10838 
82 1 0.795798 5.47615 -4.52635 
959 1 1.59233 5.88105 -4.19386 
564 1 0.699527 5.2548 -3.44962 
442 1 2.33772 -5.96966 -3.63065 
1042 2 2.43184 4.95322 -4.05332 
653 1 4.07725 4.58236 -4.39195 
1691 2 3.63407 5.49723 -4.3452 
1612 2 4.25268 5.524 -3.53997 
1559 2 3.38587 5.12938 -3.36163 
835 1 4.6692 4.7428 -3.92005 
443 1 5.16737 5.22867 -4.56777 
918 1 5.6392 4.8248 -3.54876 
1534 2 -4.99208 -5.42174 -2.56189 
666 1 -5.51308 -4.66692 -2.26634 
1489 2 -5.63374 -5.59958 -3.06534 
1918 2 -5.37615 5.86113 -1.91193 
1285 2 -3.93785 -5.35981 -2.68059 
1197 2 -3.488 -4.72471 -3.23987 
508 1 -3.22049 -5.82585 -3.54665 
1047 2 -3.30152 -4.89287 -2.39717 
295 1 -2.80478 -5.93831 -2.73987 
934 1 -1.80832 -5.63172 -2.58501 
5 1 -0.922028 -4.91215 -2.9844 
337 1 -0.969965 -5.33942 -2.19224 
326 1 -0.061729 -4.80975 -3.17062 
328 1 -0.190483 -4.90387 -2.34061 
107 1 0.719454 -4.60933 -2.46877 
1338 2 0.330859 -5.66325 -3.19272 
1319 2 1.16697 -5.45655 -2.86588 
1928 2 0.900096 -5.86207 -2.24756 
1563 2 2.74092 -5.10155 -2.6333 
1528 2 1.92534 -5.26258 -2.45496 
487 1 3.28763 5.87027 -2.4332 
955 1 4.05186 -5.61674 -2.80092 
422 1 4.20831 -5.90544 -2.10814 
847 1 5.07992 -5.19165 -2.66311 
284 1 5.81339 -4.75415 -2.99141 
1013 1 5.68942 -5.06259 -1.95298 
280 1 -4.84323 -4.05169 -3.05656 
1545 2 -4.76917 -3.38051 -2.19405 
1201 2 -5.78244 -3.62476 -2.83974 
411 1 -4.55427 -4.48844 -2.41456 
504 1 -3.83458 -3.94322 -2.75878 
21 1 -3.47819 -3.92293 -1.90419 
1807 2 -2.56009 -4.54692 -2.70923 
246 1 -2.786 -3.59453 -2.34847 
1280 2 -1.445 -4.07423 -2.90489 
1402 2 -1.89545 -4.5858 -2.13048 
1878 2 -1.07321 -4.00836 -2.15357 
1580 2 0.287805 -3.64426 -2.29633 
1457 2 -0.574031 -3.78182 -2.63396 
938 1 1.21759 -4.19491 -2.98848 
20 1 1.44573 -4.56421 -1.93205 
321 1 2.03531 -4.20868 -2.62506 
1991 2 0.763728 -3.25638 -2.84725 
914 1 2.86867 -3.87909 -2.75588 
550 1 2.587 -4.28391 -1.9131 
1521 2 3.5827 -4.64014 -2.92183 
1240 2 4.36346 -4.10588 -3.15741 
1530 2 4.65495 -4.35566 -2.32649 
928 1 3.5446 -3.7126 -2.39046 
1767 2 5.15387 -3.8489 -2.88513 
2002 2 5.45226 -3.95674 -1.90154 
968 1 -5.51144 -2.1565 -2.97038 
1400 2 -5.01397 -2.94216 -3.06579 
592 1 -4.85767 -2.02488 -2.30558 
2007 2 -3.38605 -2.52679 -2.70302 
1289 2 -4.10482 -2.92936 -2.46796 
1052 2 -2.60868 -2.18614 -2.61218 
388 1 -1.34818 -2.72417 -3.1459 
1682 2 -1.87852 -2.09001 -2.03113 
753 1 -2.17666 -3.12015 -2.82248 
677 1 -1.49849 -3.05627 -2.29026 
526 1 -0.705054 -2.7738 -2.48992 
998 1 0.328912 -2.43511 -2.51831 
1533 2 1.9649 -2.91166 -2.84942 
1738 2 1.45207 -3.30634 -2.28045 
705 1 1.43244 -2.12631 -2.453 
1123 2 2.93408 -2.68086 -2.66816 
1973 2 4.09486 -2.18106 -2.19213 
1030 2 3.57731 -2.18058 -2.80344 
754 1 3.69517 -3.12859 -3.19614 
311 1 4.4193 -2.99862 -2.68429 
562 1 5.02908 -2.70919 -2.9916 
296 1 5.88605 -2.60206 -2.58333 
213 1 5.32364 -2.983 -2.05793 
1792 2 -5.04128 -0.856369 -2.76323 
1641 2 5.8327 -1.29575 -2.53916 
767 1 -4.52428 -1.66214 -3.22768 
848 1 -3.79579 -1.60257 -2.43694 
419 1 -3.60887 -1.2433 -3.31363 
1972 2 -4.22112 -0.75675 -2.0998 
117 1 -2.83452 -1.15388 -2.76227 
1086 2 -1.05942 -1.71334 -2.52395 
898 1 -1.96513 -0.792291 -2.70129 
1781 2 -1.85829 -1.81325 -2.94414 
59 1 -1.52563 -0.879162 -1.8669 
1635 2 -0.43705 -1.38661 -2.96994 
1819 2 -0.0828183 -1.53484 -2.05431 
1517 2 0.488152 -1.15427 -2.75876 
287 1 0.883858 -2.04322 -3.09659 
581 1 2.03109 -1.68196 -2.81216 
2027 2 1.02286 -1.1791 -2.10243 
106 1 2.69493 -1.70735 -2.36345 
125 1 3.15537 -1.15053 -2.58731 
1568 2 2.06301 -0.762829 -1.84557 
846 1 3.70824 -0.783158 -3.24653 
334 1 3.98914 -0.860703 -2.24376 
1350 2 4.71943 -1.66441 -2.79678 
109 1 4.69921 -0.505255 -2.72668 
1110 2 5.39784 -1.19256 -3.22448 
1279 2 5.32792 -1.85205 -2.16512 
692 1 -5.33587 0.237115 -3.25866 
654 1 -5.23282 0.0347406 -2.23203 
824 1 -4.60283 0.551662 -2.79097 
2035 2 -4.21986 -0.384843 -2.81666 
912 1 -3.66706 0.6902 -2.2296 
1589 2 -3.40904 -0.278275 -2.50406 
1876 2 -2.98822 0.238013 -3.05197 
1206 2 -2.45768 0.158824 -2.49389 
1834 2 -1.69802 0.44013 -2.87939 
1761 2 -0.913921 0.38658 -2.39317 
799 1 -1.0382 -0.585896 -2.73221 
625 1 0.530676 0.209512 -2.94531 
499 1 -0.293122 0.0310132 -3.19924 
630 1 0.129457 -0.29696 -2.41866 
963 1 1.76482 0.797445 -3.08701 
1832 2 1.65847 -0.811474 -2.58644 
776 1 1.23468 0.21041 -2.59112 
2008 2 2.86668 0.043238 -3.20254 
1696 2 2.55603 -0.35472 -2.42942 
464 1 2.38798 0.62152 -2.30118 
1953 2 4.01465 0.475212 -3.40514 
1320 2 3.50389 0.0454375 -2.60204 
1952 2 4.39573 0.337258 -2.38344 
241 1 5.4531 -0.411346 -2.27089 
297 1 -5.90859 -0.0266588 -2.72018 
1986 2 -5.56624 1.08207 -2.68887 
1720 2 -4.49514 1.7068 -2.71116 
1724 2 -4.97832 1.31887 -2.07298 
900 1 -3.77893 0.969421 -2.98192 
1282 2 -3.89586 1.81138 -2.13568 
613 1 -2.95348 1.35451 -2.89103 
259 1 -2.03585 1.35136 -2.66353 
189 1 -1.84127 1.88027 -3.32699 
397 1 -1.18828 1.54831 -2.24474 
1104 2 -0.655987 0.999523 -3.07686 
2022 2 -0.0983765 0.757274 -2.11133 
1893 2 0.289878 1.17939 -2.79711 
585 1 -0.302171 1.7246 -2.09606 
1838 2 1.32026 1.66021 -2.81406 
1944 2 1.72609 1.45315 -1.8645 
1297 2 0.889135 1.18309 -2.15305 
50 1 2.73958 1.13439 -3.12278 
90 1 3.14313 0.978618 -2.33066 
1340 2 2.21388 1.91878 -2.67584 
232 1 3.66883 1.44436 -2.97374 
1017 1 3.96422 1.17419 -2.03996 
1858 2 4.79345 0.824798 -3.17717 
944 1 4.49754 1.60537 -2.69289 
1803 2 5.37107 0.76918 -2.4379 
194 1 5.39061 1.63699 -2.17522 
811 1 -5.7753 2.12962 -2.48579 
7 1 -5.29038 2.61767 -2.94231 
926 1 -4.86621 2.59847 -2.29677 
1512 2 -3.97429 2.13021 -3.19555 
369 1 -4.41159 3.08823 -2.89111 
989 1 -3.69642 3.18398 -2.43636 
1485 2 -2.91756 2.51368 -3.25758 
1938 2 -3.34927 2.15305 -2.56268 
1415 2 -2.08912 2.74171 -2.83367 
1476 2 -1.21644 2.87347 -2.52222 
719 1 -1.01535 1.97402 -2.95822 
134 1 0.023776 2.28111 -2.71184 
1756 2 -0.402904 3.08995 -2.16035 
910 1 0.817685 2.4622 -2.30024 
240 1 1.46017 3.09137 -3.21504 
937 1 1.64505 2.75209 -2.51631 
1642 2 2.80488 2.47266 -3.27555 
896 1 2.39553 3.31728 -2.83232 
828 1 2.99058 3.40546 -2.27386 
1522 2 4.14635 2.80633 -3.06325 
1461 2 3.35056 2.45217 -2.57923 
1026 2 4.24097 2.52572 -2.22212 
1994 2 4.96736 3.08487 -2.81511 
381 1 5.21204 2.09631 -3.09307 
1971 2 -5.55644 3.69974 -2.90557 
1669 2 -4.75818 4.20587 -2.80869 
1278 2 -5.17145 3.58445 -2.0497 
1287 2 -3.98921 4.0169 -1.96153 
1325 2 -3.70365 4.36979 -2.76531 
250 1 -3.20434 3.51415 -3.00618 
772 1 -2.60447 3.46023 -2.41073 
17 1 -2.08132 4.0069 -2.98178 
1992 2 -3.01299 4.47766 -2.26378 
733 1 -1.25218 3.95798 -2.46268 
1304 2 -0.411463 3.4322 -3.12509 
1616 2 0.366109 3.75522 -2.87362 
86 1 -0.489704 4.39276 -2.56992 
1981 2 1.09975 4.04862 -3.22669 
1679 2 0.469253 3.47873 -2.05176 
1968 2 1.31135 3.69194 -2.18272 
1997 2 1.94762 4.3226 -2.9237 
448 1 3.43568 3.74199 -3.02393 
262 1 4.26833 3.92271 -2.45265 
1333 2 5.58718 3.06987 -2.26528 
370 1 5.56149 4.18221 -2.17776 
579 1 -5.89084 4.7461 -2.7588 
952 1 -5.2023 4.93339 -2.23763 
342 1 -4.88578 5.4549 -2.88336 
1008 1 -3.68079 5.62531 -2.74995 
589 1 -4.21477 5.18226 -2.25262 
1957 2 -3.07135 4.78589 -3.22416 
1601 2 -2.28636 4.88589 -2.6518 
1236 2 -2.11107 5.39331 -3.27143 
1339 2 -1.59361 4.93162 -2.11472 
1571 2 -1.36357 5.53937 -2.97994 
1818 2 -0.792372 5.58066 -2.3788 
836 1 0.370369 4.75806 -2.78103 
1503 2 0.105428 5.76134 -2.4754 
652 1 1.60532 5.59766 -3.31892 
736 1 1.28918 5.02664 -2.45338 
1499 2 2.72983 4.60647 -2.96534 
1764 2 3.4177 4.80496 -2.40782 
41 1 2.33152 5.62293 -2.71929 
490 1 2.02859 5.38813 -1.92921 
1714 2 4.14742 5.10927 -2.75856 
1425 2 4.88349 5.51775 -2.8713 
2000 2 5.72845 5.82312 -2.42684 
1318 2 5.19115 5.23472 -2.10591 
182 1 -4.87758 -4.82388 -1.50315 
452 1 -5.52432 -5.24583 -1.21487 
1404 2 -3.66865 -5.5839 -1.61797 
1122 2 -4.57254 -5.76757 -1.91105 
724 1 -4.18408 -4.76228 -0.922633 
1783 2 -2.54032 -5.0736 -1.72386 
1454 2 -2.88539 -5.48935 -1.01511 
229 1 -2.2799 5.87251 -1.92859 
1843 2 -1.84937 -5.04426 -0.925458 
1106 2 -1.21369 -4.62166 -1.46918 
954 1 -1.37709 -5.75031 -1.51393 
147 1 0.241443 -5.39238 -0.956965 
459 1 -0.311118 -5.53113 -1.59213 
661 1 0.394654 -5.13991 -1.77695 
569 1 1.09079 -4.92195 -1.14418 
1081 2 1.60296 -5.72872 -1.63636 
1199 2 1.77126 -5.88847 -0.842001 
2019 2 3.27842 -5.08087 -1.9666 
1984 2 2.42706 -5.39913 -1.51118 
286 1 2.77576 -4.21794 -1.01443 
1765 2 3.98379 -4.73921 -2.12318 
1859 2 4.07168 -4.808 -1.24575 
1749 2 3.35296 -5.20897 -1.1104 
542 1 4.62916 5.86323 -1.20883 
153 1 4.92802 -5.56692 -1.89058 
802 1 5.54093 -5.71628 -1.15194 
1817 2 -5.58951 -3.70688 -2.01914 
1217 2 -5.13655 -3.83173 -1.39418 
798 1 -3.9852 -4.471 -1.60322 
366 1 -3.31577 -4.60502 -0.974136 
844 1 -2.63152 -4.05147 -1.36217 
71 1 -2.00068 -3.60437 -1.77738 
890 1 -2.19608 -4.23243 -0.640038 
986 1 -1.68808 -3.63752 -1.02034 
1613 2 -0.598057 -4.48141 -1.0109 
1896 2 -0.307707 -4.01778 -1.77457 
1753 2 0.377259 -4.14736 -1.14747 
1263 2 0.911053 -3.72453 -1.77454 
1894 2 1.35687 -3.61014 -0.897803 
1923 2 1.95451 -3.35356 -1.58732 
1019 1 1.95989 -4.47819 -1.23188 
1985 2 2.12273 -3.35005 -0.713774 
137 1 3.43069 -3.96349 -1.61735 
605 1 4.36034 -3.33664 -1.95595 
385 1 4.09268 -3.8043 -1.24511 
1131 2 5.86009 -4.24662 -1.10146 
2017 2 4.85478 -4.62881 -1.37011 
314 1 4.95513 -3.24634 -1.17515 
636 1 -5.32501 -2.43782 -1.86764 
275 1 -4.65801 -2.56114 -1.20337 
219 1 -5.26445 -2.86803 -0.674055 
285 1 -4.29881 -1.97042 -1.7663 
1387 2 -4.32156 -3.39372 -1.38646 
58 1 -3.75174 -1.89925 -1.15299 
1948 2 -3.52487 -2.88391 -1.8144 
1442 2 -2.91042 -3.03672 -1.16031 
1505 2 -2.73947 -2.53599 -1.85477 
1391 2 -2.04046 -2.70768 -1.40743 
1069 2 -1.26622 -2.34843 -1.4851 
1796 2 -0.866282 -2.38928 -0.733446 
324 1 -0.910088 -3.24366 -1.49137 
703 1 0.617752 -2.70948 -1.15918 
566 1 -0.128386 -2.85514 -1.93345 
1808 2 -0.521342 -1.92278 -1.51752 
347 1 -0.268559 -3.25242 -1.06415 
211 1 0.928916 -2.52235 -1.91726 
215 1 1.49081 -2.34376 -1.25068 
377 1 2.05457 -2.02836 -1.87026 
1066 2 2.55256 -3.09376 -2.08152 
1947 2 2.80999 -3.02744 -1.27678 
199 1 2.58179 -2.13504 -1.05506 
1708 2 3.49361 -2.74329 -1.92304 
1698 2 4.88897 -2.10043 -1.57113 
1787 2 4.07394 -2.55854 -1.34126 
734 1 5.91508 -2.85485 -1.35947 
1978 2 5.60858 -1.90175 -1.0461 
1946 2 -5.17993 -1.01719 -1.98542 
1167 2 -5.82691 -1.53297 -1.73158 
1587 2 -5.38702 -1.69476 -0.940263 
1432 2 -3.64615 -0.687201 -1.31353 
1299 2 -4.64614 -1.16296 -1.20995 
1025 2 -3.94607 -1.03177 -0.581426 
917 1 -3.11016 -1.39097 -2.06714 
1128 2 -2.9053 -0.809219 -0.780218 
449 1 -2.67 -1.67032 -1.22154 
548 1 -2.28678 -1.15557 -1.99864 
683 1 -1.62829 -1.43363 -1.15988 
468 1 -0.776484 -0.939609 -1.18849 
1057 2 -0.0173351 -1.87216 -0.858259 
1916 2 0.600015 -1.60756 -1.35363 
2046 2 1.06687 -1.56231 -0.688164 
1360 2 1.52861 -1.34607 -1.40162 
691 1 3.14681 -1.72762 -1.64514 
1897 2 2.75085 -0.790528 -1.21608 
626 1 4.00724 -1.35633 -1.52762 
867 1 4.71147 -0.946041 -1.79889 
198 1 4.59863 -1.33688 -0.852575 
962 1 3.57649 -1.69275 -0.816318 
279 1 5.23787 -0.900779 -1.1751 
958 1 -5.01991 -0.0967588 -1.27006 
518 1 -5.83274 -0.375881 -1.71415 
921 1 -3.44117 0.51419 -1.27158 
876 1 -4.39726 0.3662 -1.90841 
472 1 -4.15842 0.0963849 -0.859796 
1098 2 -2.88029 -0.30237 -1.88259 
1507 2 -2.24913 -0.310646 -1.09146 
192 1 -2.57626 0.64485 -1.11033 
2043 2 -1.63502 0.184165 -1.7599 
1323 2 -1.21908 -0.00885799 -0.827526 
447 1 -0.575789 -0.586361 -1.94346 
1067 2 -0.605457 0.465555 -1.54986 
160 1 0.705601 -0.171749 -1.88234 
1735 2 -0.263237 0.224363 -0.818585 
601 1 0.151099 -0.715469 -1.37993 
1213 2 0.383485 0.657884 -1.44791 
886 1 1.72644 0.293943 -1.74757 
121 1 1.34885 -0.180772 -1.18204 
1314 2 3.20141 -0.320305 -1.79338 
837 1 2.37773 0.201512 -0.935042 
243 1 2.69306 0.676016 -1.56628 
1680 2 3.96785 -0.113623 -1.53186 
1758 2 3.55863 -0.482981 -0.947393 
1220 2 4.9871 0.271868 -1.75588 
2030 2 4.79982 0.0263807 -0.990275 
1468 2 5.62916 0.385552 -1.19289 
2038 2 -4.34414 1.3543 -1.48965 
1059 2 -4.99866 0.866594 -1.12822 
966 1 -5.23795 1.84417 -0.689428 
1229 2 -3.7604 1.43419 -0.78513 
1520 2 -3.1838 1.86917 -1.67065 
94 1 -2.95329 0.94263 -1.98485 
1776 2 -2.90661 1.54327 -0.752176 
357 1 -2.18764 1.11827 -1.52671 
115 1 -1.44145 1.12373 -1.63394 
660 1 -0.695886 1.39481 -1.20967 
88 1 0.0894159 1.61183 -0.568764 
1860 2 1.26389 1.03384 -1.34631 
823 1 0.905186 1.95369 -0.990642 
1967 2 2.89613 1.87855 -2.08026 
1726 2 2.00412 1.22139 -0.764285 
1158 2 2.41051 1.65677 -1.42582 
1866 2 3.10244 1.71799 -1.0118 
783 1 4.09139 0.884761 -0.88235 
104 1 3.53335 0.709546 -1.45485 
1786 2 3.8638 1.9002 -0.54982 
1508 2 -5.72015 0.877275 -1.70848 
110 1 4.75197 1.36503 -1.62766 
16 1 5.6724 1.57661 -1.3654 
761 1 -5.45596 2.15975 -1.58908 
516 1 -4.56254 2.24867 -1.31605 
1105 2 -5.08817 3.01962 -0.96585 
1527 2 -5.83602 2.98993 -1.46308 
276 1 -4.13595 2.79491 -1.84765 
323 1 -3.54751 2.70834 -1.17947 
26 1 -2.92487 3.11718 -1.73345 
460 1 -2.38472 2.98256 -0.990584 
1839 2 -2.50412 2.18041 -2.22251 
1170 2 -2.17309 2.07673 -1.28387 
1959 2 -1.74899 2.47472 -1.89007 
2021 2 -0.770982 2.63047 -1.57821 
1092 2 -1.49551 2.22703 -0.908027 
608 1 0.406454 1.87203 -1.61198 
1247 2 0.0594894 2.91942 -1.31498 
2047 2 -0.484096 2.53354 -0.644909 
945 1 1.49056 2.46736 -1.53781 
747 1 2.37064 2.64243 -0.825889 
143 1 2.35562 2.75837 -1.84231 
510 1 3.05633 2.91322 -1.38841 
1368 2 3.65428 2.10611 -1.5655 
181 1 3.82983 3.11712 -0.839948 
1686 2 4.43549 2.26478 -1.20782 
1825 2 5.00315 2.68773 -1.78868 
1330 2 5.35759 2.43761 -0.752715 
355 1 -5.64221 4.42789 -1.68233 
974 1 -5.11851 4.22875 -0.937239 
1419 2 -4.56064 3.57602 -1.44081 
1853 2 -3.30684 4.06574 -1.54315 
1072 2 -3.86941 3.72191 -0.952654 
520 1 -1.79088 3.55967 -1.90604 
1348 2 -2.65002 4.03668 -0.969038 
1344 2 -2.18344 4.52784 -1.6597 
111 1 -0.911969 3.9033 -1.72633 
720 1 -1.42279 3.33342 -1.17153 
1265 2 -1.94977 4.11703 -0.581803 
361 1 0.00143168 4.44134 -1.97767 
165 1 0.660452 4.2715 -0.959613 
418 1 -0.196732 3.99836 -1.1687 
1107 2 1.13933 3.33181 -1.22644 
1428 2 1.93376 3.87044 -1.66847 
187 1 0.846229 4.60389 -1.75524 
1405 2 2.08605 3.51434 -0.8695 
1854 2 2.42152 4.37597 -2.16025 
1126 2 2.70581 4.13183 -1.22852 
1868 2 3.60025 4.36861 -1.43081 
552 1 3.71676 3.51479 -1.91758 
432 1 4.55172 3.30368 -1.14828 
1178 2 4.19944 4.5316 -1.01994 
166 1 4.80349 3.74808 -1.85017 
582 1 5.66547 3.93578 -1.27583 
650 1 5.14112 3.51542 -0.69211 
1362 2 -4.80135 5.70624 -1.15227 
1822 2 -4.04583 5.90334 -1.00128 
961 1 -4.6039 4.7733 -1.49682 
203 1 -3.70026 5.01833 -1.40239 
119 1 -3.03839 5.44164 -1.88502 