ITEM: TIMESTEP
47300
ITEM: NUMBER OF ATOMS
2048
ITEM: BOX BOUNDS pp pp pp
-5.9326930789337231e+00 5.9326930789337231e+00
-5.9326930789337231e+00 5.9326930789337231e+00
-5.9326930789337231e+00 5.9326930789337231e+00
ITEM: ATOMS id type x y z 
1090 2 -5.4982 -4.74733 -5.11969 
181 1 -4.9616 -5.85395 -5.17081 
274 1 -3.78375 -5.47587 -4.85531 
443 1 -4.98058 -5.36385 5.71606 
14 1 -4.30844 -5.46471 -5.6674 
229 1 -3.21777 -5.55905 -4.27048 
333 1 -2.76111 -5.54983 -3.47916 
426 1 -3.31902 -5.0787 -5.43441 
412 1 -2.62586 -4.9316 -4.92407 
1302 2 -2.68574 5.91256 -5.25709 
2029 2 -1.90628 -5.89716 -4.60665 
1419 2 -1.15384 -5.52792 -4.69784 
1029 2 -1.97165 -5.56718 -5.54896 
1329 2 -1.14778 -5.36918 -5.47912 
1374 2 0.234261 -5.05069 -5.05676 
959 1 0.212479 5.66803 -5.08037 
1551 2 -0.430498 -5.09886 -5.52112 
350 1 1.02385 -5.70878 -5.40042 
223 1 1.85071 -5.65937 -4.98321 
648 1 2.18158 -5.23479 -5.69153 
707 1 2.89893 -5.21546 -4.79369 
481 1 3.13427 -4.9141 -5.51405 
1114 2 3.96471 -5.39201 5.84564 
675 1 3.75136 -4.79402 -4.84404 
1145 2 3.83714 -5.82442 -5.16447 
1661 2 5.56771 -5.11339 -5.35684 
1244 2 4.76145 -5.27284 -5.48715 
2016 2 4.84125 -5.64147 -4.6559 
1306 2 5.43078 -4.70373 5.49031 
826 1 -4.95375 -3.54171 -5.10094 
1759 2 -4.74298 -4.57566 -5.41028 
1390 2 -4.33701 -4.59777 -4.68694 
1961 2 -3.63355 -4.26069 -4.83226 
1849 2 -4.07254 -4.0624 -5.56908 
1472 2 -3.06379 -3.76565 -5.34132 
1630 2 -2.12308 -3.47939 -5.12922 
77 1 -1.83291 -4.53261 -5.40442 
738 1 -1.02668 -4.31292 -5.02692 
169 1 -1.06539 -4.01934 -5.8943 
1898 2 -1.42848 -3.20777 -5.31269 
202 1 -0.36614 -4.22686 -4.75372 
107 1 -0.071701 -3.77864 -5.56363 
1486 2 1.30666 -4.3443 -5.59687 
855 1 0.832318 -3.52067 -5.3501 
1081 2 2.26344 -4.11921 -5.42374 
1678 2 2.96402 -3.69155 -5.74959 
1344 2 3.18077 -3.71965 -4.85114 
237 1 3.71993 -4.33548 -5.64038 
1745 2 3.93686 -3.2281 -4.98452 
1561 2 3.63679 -3.21012 -5.78972 
49 1 -5.71835 -3.6031 -5.33205 
809 1 5.31878 -4.10134 -5.18487 
373 1 4.54233 -4.10424 -5.65058 
450 1 -4.24618 -3.03649 -5.44528 
1478 2 -5.47962 -2.61117 -5.03787 
1465 2 -5.19964 -2.17387 -5.91343 
1655 2 -4.75445 -2.20617 -5.17209 
922 1 -4.09719 -3.36687 -4.5303 
75 1 -3.61868 -2.6625 5.85768 
465 1 -2.54902 -2.78314 -4.52277 
595 1 -3.22623 -2.66431 -5.24583 
810 1 -2.57213 -2.2754 -5.64728 
773 1 -1.90152 -2.22339 -4.9735 
1495 2 -2.13143 -3.32515 5.87367 
1380 2 -0.40702 -2.97724 -5.05825 
1231 2 -0.00768552 -2.32293 -5.64696 
1533 2 0.470036 -2.65597 -4.98448 
1946 2 1.24179 -2.03901 -5.41876 
108 1 1.77292 -2.96533 -5.88109 
975 1 1.72753 -3.29425 -5.10593 
819 1 2.45041 -2.95542 -5.04347 
207 1 2.61319 -2.59408 -5.72024 
485 1 3.18088 -2.71414 -4.57449 
20 1 3.49494 -2.27049 -5.28489 
403 1 4.24797 -2.15231 -5.01366 
1905 2 4.63813 -3.11689 -5.56185 
1491 2 5.64179 -3.06172 -4.52556 
1902 2 5.3867 -2.85875 -5.40642 
344 1 -5.83846 -1.65003 -4.7279 
592 1 -4.96084 -1.02918 -5.70391 
1171 2 -3.63109 -1.76671 -4.87907 
37 1 -5.05787 -1.1948 -4.8503 
348 1 -4.06198 -0.952213 -4.73217 
1196 2 -4.08701 -1.75374 -5.73708 
680 1 -4.30633 -0.625429 -5.57556 
1442 2 -2.98415 -1.38736 -5.49188 
1975 2 -2.45152 -1.2386 -4.80564 
313 1 -1.15439 -1.9001 -5.06691 
1243 2 -2.28124 -0.974348 -5.67691 
1809 2 -1.37296 -0.589299 -5.4411 
788 1 -0.690318 -1.25191 -5.87955 
2041 2 -0.639339 -0.697226 -4.65119 
677 1 0.586663 -1.54634 -4.73109 
844 1 -0.342522 -1.49595 -5.16295 
74 1 0.354902 -1.10927 -5.60941 
1363 2 2.01616 -1.8778 -5.33421 
1006 1 1.28578 -1.04955 -5.28991 
1259 2 2.81701 -1.53043 -5.19006 
1087 2 3.16291 -1.00828 -5.82283 
1698 2 3.67914 -1.22359 -4.88128 
385 1 4.24988 -1.86542 -5.90375 
1982 2 3.96996 -0.986916 -5.57025 
748 1 -5.82404 -1.22172 -5.77331 
25 1 5.1471 -1.94455 -4.94498 
66 1 5.25196 -1.51429 -5.56794 
1083 2 -5.28958 0.0661279 -5.18017 
1037 2 -5.50108 -0.402414 -4.38156 
1939 2 -4.54439 0.0376987 -4.73192 
833 1 -3.45193 -0.260505 -5.68011 
2048 2 -4.36007 0.525866 -5.32562 
1964 2 -3.81564 0.424309 -4.6371 
205 1 -3.27629 -0.473042 -4.8776 
543 1 -2.64399 -0.0125489 -5.41135 
848 1 -2.00767 0.443205 5.86404 
1713 2 -0.802445 -0.192219 -5.82784 
374 1 -0.824748 0.613901 -5.14269 
419 1 -1.77978 0.362796 -5.11217 
2032 2 -0.148288 -0.0641566 -5.33602 
1271 2 0.821508 0.249547 -5.79332 
830 1 1.85089 -0.434176 -5.74497 
1644 2 0.79871 -0.135156 -5.1098 
1223 2 1.60506 0.593664 -5.61012 
1468 2 1.57809 0.218295 -4.61271 
916 1 2.24294 -0.635515 -4.90302 
31 1 2.86388 -0.175138 -5.24766 
1500 2 2.33323 0.666562 -5.33668 
715 1 3.26688 -0.408861 -4.41671 
674 1 3.79165 -0.02385 -5.0596 
163 1 4.54452 0.530464 -5.56099 
1148 2 5.62189 -0.674331 -4.60097 
1184 2 5.68612 -0.263589 -5.44281 
1634 2 4.56733 -0.478982 -5.86854 
872 1 5.06497 0.288366 -4.89882 
824 1 -5.37751 1.17714 -4.9741 
903 1 -4.71883 1.58833 -5.86412 
310 1 -4.46234 1.49829 -5.06678 
94 1 -3.44806 1.69502 -4.61337 
1256 2 -3.60161 0.795714 -5.46115 
1498 2 -2.59976 1.00525 -5.44558 
1876 2 -3.12563 0.745935 -4.70448 
1797 2 -1.54688 1.26622 -4.76661 
1821 2 -0.804986 1.5906 -4.61248 
1212 2 -0.891461 1.88102 -5.55757 
615 1 0.0853295 0.731508 -4.66308 
594 1 0.818373 1.37775 -5.69715 
829 1 -0.0206348 1.04224 -5.53371 
570 1 1.35382 1.907 5.81419 
451 1 1.29311 1.5683 -4.97904 
1529 2 2.7727 1.22974 5.90031 
482 1 1.989 1.85249 -5.43222 
869 1 2.99099 1.86946 -4.57854 
1502 2 3.44296 1.15899 -5.48274 
1952 2 3.04974 0.807263 -4.74814 
1986 2 4.32679 1.44302 -5.553 
469 1 5.76092 0.714042 -5.23056 
138 1 5.24267 0.892125 5.85991 
960 1 -5.46134 1.02185 -5.77342 
1729 2 4.93901 1.97455 5.90162 
1505 2 5.51478 1.9434 -5.28015 
1603 2 -5.24123 2.3323 -5.32979 
1179 2 -5.39621 2.76729 5.52536 
1204 2 -4.83639 2.3575 -4.56467 
1800 2 -4.55547 2.68958 -5.53128 
1512 2 -3.81995 2.66041 -4.60307 
1336 2 -3.81716 3.07126 -5.52635 
164 1 -3.83025 1.97867 -5.5094 
852 1 -3.10428 2.34973 -5.7748 
1794 2 -3.15748 3.38327 -5.24175 
956 1 -2.75163 2.06692 -5.0918 
815 1 -2.26165 2.70771 -5.60062 
727 1 -1.46412 2.61863 -5.0072 
990 1 -0.721159 3.1746 -5.86562 
1322 2 0.0252932 2.10103 -5.24247 
262 1 -0.776304 3.0173 -4.99507 
1222 2 0.430576 2.59339 -5.88247 
1054 2 0.813174 2.3719 -4.74519 
1653 2 1.28135 2.74828 -5.58021 
1681 2 1.75606 2.77296 -4.78491 
1245 2 2.17101 3.18484 -5.35351 
118 1 2.70729 2.20994 -5.51806 
523 1 3.61714 2.62102 -5.90865 
96 1 3.67819 2.18894 -5.18824 
97 1 4.52538 2.87402 -5.57925 
171 1 5.25225 3.02423 -5.21565 
1600 2 -5.86015 2.25895 -5.86767 
882 1 -5.84813 3.30147 -5.02586 
755 1 -5.56062 3.62412 -5.84598 
1376 2 5.7951 4.42363 -5.7299 
1670 2 -5.70592 4.24712 -4.47527 
733 1 -4.83895 3.77835 -5.32744 
69 1 -4.20314 4.26773 -5.70202 
1824 2 -2.866 3.76936 5.97118 
123 1 -4.16562 3.95558 -4.78661 
1378 2 -2.31479 3.61865 -5.16783 
165 1 -2.54463 4.38311 -4.63648 
1607 2 -1.09784 4.20368 -5.43194 
1142 2 -1.54586 3.7974 -4.87629 
417 1 0.0458601 3.59208 -5.56377 
1071 2 0.501873 4.48119 -4.68192 
1304 2 -0.635029 3.96077 -4.55499 
407 1 0.767297 3.5355 -5.0911 
1042 2 -0.308728 4.46085 -5.27309 
777 1 1.04992 3.96259 -5.76653 
208 1 1.55904 3.84868 -4.6949 
1016 1 2.00969 4.23594 -5.26042 
835 1 3.4494 4.67934 -4.6161 
1274 2 3.50705 3.30245 -5.06677 
1640 2 4.22799 3.73408 -5.12749 
1420 2 3.72654 3.94131 -5.86149 
1479 2 4.77713 4.29857 -5.57572 
235 1 5.2663 3.29962 5.88916 
1969 2 5.38275 4.24332 -4.92414 
1662 2 -4.91153 4.81283 -4.76527 
742 1 5.76381 5.58735 -5.20601 
1697 2 -5.44923 4.6654 -5.44809 
1311 2 -4.87629 5.17616 -5.91063 
1688 2 -4.31554 5.27548 -5.30373 
1526 2 -3.46657 5.67484 -5.597 
901 1 -3.33795 4.41095 -5.20967 
1801 2 -2.6198 5.53599 -4.39246 
45 1 -2.29364 4.92613 -5.29753 
797 1 -0.964165 4.96222 -4.27829 
323 1 -1.84731 4.63284 -4.21622 
120 1 -1.53962 5.02171 -5.03616 
729 1 -0.52473 5.52227 -4.76778 
1013 1 0.906524 5.81535 -4.69253 
1499 2 0.349382 4.97285 -5.72171 
1974 2 0.981808 4.85322 -5.22528 
255 1 2.73806 4.47567 -5.39606 
1704 2 3.08691 5.8138 -5.43254 
1875 2 2.17384 5.30753 -5.34539 
1624 2 2.30918 5.77193 5.77065 
318 1 3.49886 4.88255 -5.53152 
342 1 4.16429 4.62586 -4.67778 
927 1 4.27976 5.25606 -5.51481 
432 1 5.00703 5.23132 -5.09668 
1007 1 -5.6497 -5.78857 -5.82771 
1239 2 -5.0816 -4.97296 -4.4465 
1714 2 -5.61436 -5.22858 -3.89908 
1047 2 -4.2801 -4.79696 -3.78434 
2034 2 -3.41619 -4.47808 -4.01311 
147 1 -3.47099 5.90802 -3.16444 
5 1 -2.33999 -5.02885 -4.02686 
91 1 -1.70259 -4.74856 -4.53527 
1014 1 -1.59425 -5.2112 -3.32631 
902 1 -0.83682 -4.56005 -3.9928 
1527 2 -1.47804 5.87411 -3.87656 
1575 2 -0.392635 -5.37297 -4.55398 
1739 2 0.291782 -5.17157 -4.17973 
1151 2 1.12263 -4.99591 -4.03056 
1429 2 1.91172 -4.80129 -3.82974 
425 1 2.44771 -5.65161 -4.26699 
931 1 3.06499 -5.59214 -3.67777 
723 1 3.77242 -5.004 -3.95541 
1774 2 5.74989 -5.389 -4.53687 
929 1 4.39144 -4.47047 -4.95696 
1192 2 5.35647 -5.71558 -3.69383 
429 1 4.63078 -4.66866 -4.19795 
516 1 -5.73979 -4.0511 -4.58824 
622 1 -5.40403 -4.17259 -3.74189 
40 1 -4.94417 -3.82047 -4.31869 
242 1 -4.52127 -3.76487 -3.63367 
273 1 -3.51948 -3.6871 -2.78215 
1112 2 -2.82466 -4.02335 -4.54906 
1559 2 -1.81811 -3.77663 -4.35306 
339 1 -3.00899 -3.30346 -3.31542 
1991 2 -1.17072 -3.41498 -4.4885 
1711 2 -0.835276 -3.53269 -3.72935 
1046 2 -1.62727 -3.98188 -3.54585 
1922 2 0.108445 -3.1437 -3.59487 
765 1 -0.0712278 -4.28801 -3.829 
497 1 0.433431 -3.92541 -4.67374 
1790 2 1.00116 -4.72679 -4.87128 
260 1 0.667765 -4.04675 -3.91107 
1 1 1.41532 -3.80406 -4.26748 
1503 2 1.90325 -4.75434 -4.62144 
2004 2 2.67608 -4.25005 -4.46179 
1260 2 3.42133 -4.1299 -3.8918 
1984 2 4.04665 -3.70312 -4.26118 
2017 2 3.8321 -4.17774 -2.99178 
102 1 5.35109 -4.3145 -4.31904 
955 1 5.66401 -4.66819 -3.21203 
1609 2 4.43676 -3.84014 -3.52613 
1341 2 4.70821 -3.26293 -4.74369 
1813 2 5.12704 -3.49989 -3.91397 
1750 2 -5.20789 -2.73552 -4.25921 
1937 2 -5.78406 -3.09022 -3.83736 
1705 2 -5.67307 -3.31607 -3.09692 
1129 2 -5.00422 -2.87277 -3.42494 
967 1 -3.78606 -3.54352 -3.67833 
1588 2 -4.37972 -2.33862 -4.19947 
1924 2 -3.59688 -2.2654 -3.66413 
1475 2 -4.287 -2.50538 -3.25615 
151 1 -3.34439 -3.05636 -4.27141 
196 1 -2.37389 -2.93059 -3.73918 
1817 2 -2.39871 -1.87311 -3.51901 
504 1 -1.57219 -2.49293 -4.16109 
236 1 -1.20968 -2.66055 -3.35487 
657 1 -0.658481 -2.13371 -4.48177 
1881 2 -0.328804 -3.03841 -4.29097 
1878 2 0.595761 -2.9595 -4.22364 
1581 2 1.29588 -2.54518 -4.60278 
1326 2 1.27829 -2.76322 -3.80415 
1580 2 2.19632 -2.46629 -3.79626 
1197 2 2.0302 -2.01275 -4.51578 
416 1 2.39927 -3.38413 -4.17099 
1001 1 3.30688 -2.96353 -3.64419 
999 1 3.92685 -2.52734 -4.06321 
1257 2 3.73472 -1.56201 -3.91386 
117 1 5.52839 -2.09483 -4.00614 
948 1 4.80178 -2.67684 -3.42251 
784 1 4.66476 -2.36182 -4.12837 
587 1 -5.35942 -1.7898 -3.8161 
914 1 -5.63406 -1.9679 -3.00761 
212 1 -4.60728 -1.31601 -3.99569 
499 1 -3.34983 -0.81282 -4.111 
252 1 -3.93012 -1.37656 -3.49754 
1664 2 -2.9843 -1.83431 -4.25455 
214 1 -2.66416 -0.623894 -3.54221 
1097 2 -1.94226 -1.39646 -4.05645 
1345 2 -1.44736 -1.01023 -4.72567 
1911 2 -1.17821 -1.34554 -3.92066 
1057 2 -0.374602 -0.989964 -3.81946 
875 1 0.018527 -1.9244 -4.32774 
35 1 1.55124 -1.05465 -4.40782 
427 1 1.12164 -1.65868 -3.86552 
106 1 1.95199 -1.31738 -3.54087 
986 1 2.53241 -0.771128 -3.99959 
1923 2 2.77007 -1.74437 -4.32654 
287 1 3.06432 -0.983709 -3.3307 
1250 2 4.76845 -0.909142 -4.97425 
1190 2 4.34612 -1.28761 -4.3489 
1615 2 5.02156 -1.25552 -3.92407 
1174 2 5.88921 -0.820935 -3.67493 
1978 2 -5.17519 -0.585427 -3.51288 
1350 2 -4.4925 -0.243087 -3.98646 
686 1 -5.07907 0.548738 -3.52256 
1960 2 -3.77836 0.146693 -3.81352 
505 1 -2.58081 -0.271959 -4.43209 
1030 2 -2.9127 0.466581 -3.8243 
1104 2 -2.21186 0.489965 -3.28703 
291 1 -1.81755 -0.122799 -4.36661 
271 1 -0.99624 -0.144118 -3.63916 
776 1 -1.02554 0.342944 -4.42239 
1673 2 0.359959 -0.591959 -4.41271 
1021 1 -0.292009 0.328145 -4.01991 
749 1 0.59523 0.503464 -3.74809 
1858 2 0.992806 -0.259969 -4.06906 
1360 2 1.85235 -0.121625 -3.57606 
1220 2 2.59008 0.280417 -4.04875 
1314 2 3.46215 0.604219 -3.95431 
1784 2 2.65452 0.010541 -3.15164 
983 1 3.71865 -0.585564 -3.56768 
900 1 4.3393 -0.126159 -4.48974 
125 1 4.46177 -0.383401 -3.73402 
708 1 5.15863 0.160706 -3.96564 
299 1 5.81101 0.60867 -4.28829 
297 1 5.86869 0.283689 -3.42847 
494 1 -5.15994 0.842526 -4.26672 
1572 2 -5.37822 1.50969 -3.15551 
1288 2 -5.88598 2.02185 -4.66161 
921 1 -4.20433 0.980974 -3.33012 
240 1 -4.46241 1.24906 -4.16976 
613 1 -3.62664 1.41998 -3.83495 
552 1 -2.59471 1.6798 -4.39089 
982 1 -3.14656 1.26899 -3.23254 
2001 2 -2.16933 0.844068 -4.1235 
1967 2 -0.398395 1.30719 -3.75123 
1298 2 -1.34459 1.16854 -3.8374 
551 1 0.798015 0.959295 -4.74138 
1962 2 0.183729 1.8247 -4.39204 
827 1 1.77715 1.14372 -4.25433 
439 1 2.20603 1.71408 -4.57667 
726 1 2.25328 1.23464 -3.64873 
188 1 3.16631 1.54256 -3.73305 
1470 2 4.18462 0.996273 -4.58438 
1320 2 5.03226 1.47651 -4.7331 
1225 2 4.35607 0.738881 -3.58598 
1564 2 4.90737 1.14689 -3.99406 
1068 2 5.76908 1.50034 -3.84485 
1000 1 -5.80052 2.90799 -4.16589 
1861 2 -5.22263 1.89042 -3.83806 
702 1 -5.06019 3.12657 -3.82159 
1092 2 -4.37517 2.20626 -3.72235 
1772 2 -2.92274 3.06977 -4.48599 
751 1 -4.38478 3.09123 -3.27065 
1415 2 -2.78076 2.7217 -3.64109 
56 1 -2.10898 2.24746 -4.46187 
39 1 -1.02853 2.4623 -4.22353 
828 1 -1.71183 2.06437 -3.689 
493 1 -0.519671 2.3539 -3.38364 
76 1 0.0509321 2.78177 -3.91327 
716 1 -0.030243 3.04444 -4.69918 
448 1 0.741779 2.82908 -3.42195 
1834 2 1.70695 2.3768 -3.9239 
1643 2 0.950954 1.87665 -3.92199 
1999 2 2.53189 2.62219 -4.09487 
1065 2 2.69702 3.07784 -4.77469 
1642 2 2.69707 2.39246 -3.23942 
178 1 3.71534 1.93534 -4.19373 
1158 2 3.37116 2.93582 -4.0953 
447 1 4.61246 2.0653 -3.76223 
1146 2 4.22349 2.96644 -3.44968 
762 1 4.46047 2.32888 -4.6378 
947 1 5.12617 2.68934 -4.39006 
1349 2 -4.88049 4.37805 -3.97355 
1562 2 -5.47719 3.99447 -3.60331 
396 1 -4.95826 3.32284 -4.64513 
298 1 -4.16527 3.56838 -4.02617 
631 1 -3.42158 3.65826 -3.55556 
1365 2 -4.12739 4.61667 -3.41165 
204 1 -3.29263 4.10275 -4.22814 
1938 2 -2.12956 3.21434 -4.26999 
17 1 -0.773486 4.34457 -2.80996 
2045 2 -1.8632 3.1636 -3.22331 
1175 2 -1.37742 3.59626 -4.11699 
418 1 -2.43566 4.17797 -3.83329 
1997 2 0.0986955 3.96975 -3.96054 
1170 2 -0.747369 3.59567 -3.58299 
690 1 2.33042 4.08707 -4.25015 
1869 2 0.905126 4.47423 -4.00543 
143 1 1.00893 3.28865 -3.99423 
1178 2 1.70891 4.23196 -2.98968 
370 1 3.01144 4.08202 -4.62597 
650 1 3.15672 3.84816 -3.66893 
1461 2 3.97897 3.34777 -4.28821 
440 1 3.88187 4.37814 -3.83649 
1095 2 4.66675 3.72992 -4.44537 
1214 2 5.51356 3.87019 -4.04402 
993 1 -5.56249 5.46744 -4.35067 
918 1 -4.58259 -5.94628 -4.36678 
582 1 -4.8754 5.48206 -3.72305 
1278 2 -3.3344 5.30175 -4.79837 
805 1 -3.91188 -5.80035 -3.8456 
1207 2 -3.93208 4.99707 -4.3768 
1989 2 -3.3545 4.71171 -3.01411 
1088 2 -3.25233 5.02821 -3.78684 
1138 2 -2.19498 5.50025 -3.6233 
26 1 -1.5017 4.50222 -3.47177 
1191 2 -0.275148 -5.71656 -3.66293 
638 1 0.025844 5.25222 -4.21659 
925 1 -0.635644 4.6222 -3.58693 
1926 2 1.62479 4.94692 -4.69468 
41 1 0.824702 5.50975 -3.89282 
736 1 1.58562 5.90264 -4.26872 
340 1 2.02052 5.81039 -3.47584 
1854 2 1.8137 4.77139 -3.79256 
1847 2 2.41281 5.12156 -4.49192 
1612 2 2.84636 4.98542 -3.75189 
1846 2 4.26719 5.92419 -4.12059 
355 1 4.67705 4.55449 -3.60447 
1405 2 3.19276 5.63493 -4.5523 
1764 2 3.59301 5.35127 -3.64228 
166 1 4.69064 5.12336 -4.35794 
946 1 5.55903 4.77698 -3.53915 
399 1 5.55369 5.19823 -4.25917 
1307 2 -5.7851 -5.79467 -3.03852 
1103 2 -4.83295 -5.36468 -3.18753 
684 1 -5.70815 -4.83058 -2.39706 
1425 2 -3.02725 -4.46866 -3.37761 
1699 2 -3.69303 -4.86726 -3.06023 
227 1 -2.22844 -5.50131 -2.84037 
1411 2 -2.09974 -4.78347 -1.9733 
467 1 -1.97633 -5.81724 -2.12187 
1848 2 -2.9388 -4.87782 -2.47654 
30 1 -1.36022 -5.31333 -2.45051 
1417 2 0.439247 -5.44005 -3.36308 
672 1 -0.635878 -4.80406 -3.13326 
678 1 -0.580841 -5.22656 -2.44331 
286 1 -0.0135073 -4.87457 -2.08724 
1353 2 1.36041 -5.29395 -3.29024 
1818 2 1.66718 -5.41308 -2.32689 
1338 2 2.32531 -5.02101 -2.85916 
1236 2 3.14398 -4.80444 -2.56362 
64 1 4.04774 -5.29101 -3.13135 
43 1 3.37533 -5.83634 -2.9493 
857 1 4.54348 -5.56904 -2.50425 
442 1 3.72982 5.81996 -2.16009 
511 1 4.84471 -4.95297 -3.29275 
542 1 5.40745 -5.31095 -2.53811 
284 1 -5.29459 -4.3986 -2.93677 
1592 2 -5.43817 -3.57524 -2.43391 
280 1 -3.40627 -4.08255 -2.00029 
724 1 -4.17117 -4.22983 -2.19519 
353 1 -4.49924 -4.1638 -2.90506 
1931 2 -2.3934 -4.13697 -3.80289 
218 1 -2.54593 -3.62801 -2.42948 
1285 2 -2.16363 -4.34697 -2.96552 
1748 2 -1.27606 -4.04109 -2.73014 
1602 2 -1.34779 -4.39519 -2.09295 
459 1 0.314299 -4.46643 -3.02791 
1896 2 -0.366571 -3.48001 -2.97782 
203 1 1.16842 -4.20321 -3.18926 
938 1 2.05084 -3.85729 -3.42473 
1381 2 0.790176 -3.26836 -3.11096 
1973 2 0.220543 -3.61577 -2.30543 
1798 2 1.32171 -3.33577 -2.26132 
1747 2 2.67689 -4.70099 -3.49429 
547 1 2.82889 -3.64851 -3.16052 
277 1 1.83091 -4.06295 -2.56717 
981 1 2.61101 -3.90318 -2.45407 
245 1 3.3927 -3.38613 -2.56703 
1082 2 4.61041 -4.04831 -2.7052 
1198 2 3.94981 -4.62537 -2.37546 
455 1 4.21541 -3.27862 -2.17588 
1859 2 4.81951 -4.47244 -1.97582 
1528 2 5.39505 -3.66399 -3.12363 
1995 2 -4.59661 -3.16712 -2.64285 
917 1 -5.02311 -2.16871 -2.31769 
2007 2 -3.63773 -2.6772 -2.69576 
1119 2 -3.00367 -2.34526 -3.10921 
1483 2 -2.86979 -2.63389 -2.12505 
1851 2 -2.27549 -2.16307 -2.47129 
411 1 -1.99142 -3.09334 -2.9367 
998 1 -1.02773 -2.77136 -2.65636 
1993 2 -1.22376 -1.97424 -2.01513 
150 1 -0.389897 -2.38401 -3.51671 
246 1 -0.233928 -2.63752 -2.45995 
691 1 0.414691 -2.08887 -3.56585 
1066 2 1.63762 -2.89269 -3.09634 
241 1 1.45139 -1.83915 -2.67632 
11 1 0.58447 -2.27035 -2.83141 
1894 2 3.02199 -2.00934 -3.2829 
1942 2 2.35382 -2.6664 -2.75175 
1263 2 2.16141 -2.97442 -1.95127 
1947 2 3.04051 -2.44966 -2.26306 
928 1 4.09916 -2.87519 -3.03206 
1641 2 4.18395 -2.23874 -2.14928 
1163 2 3.61463 -1.94448 -2.56396 
140 1 -5.85348 -2.51608 -2.37296 
161 1 5.46433 -2.4764 -3.05176 
136 1 5.01137 -2.91229 -2.63902 
1279 2 -4.9433 -0.78006 -2.49638 
2035 2 -5.72122 -1.02799 -2.72231 
532 1 -4.59276 -1.62596 -3.02389 
636 1 -4.12218 -1.88902 -1.98143 
717 1 -3.66851 -1.54854 -2.56038 
1893 2 -4.37922 -0.712897 -1.9064 
789 1 -3.19244 -1.19862 -3.12939 
121 1 -2.05497 -0.851199 -2.82811 
1414 2 -1.45036 -1.68429 -3.02496 
1867 2 -0.643667 -1.47659 -3.08992 
1963 2 0.389455 -0.95259 -3.5693 
1456 2 0.298977 -1.26906 -2.70133 
1517 2 -0.482468 -1.62144 -2.28205 
1832 2 1.07086 -0.656714 -3.204 
1568 2 1.23508 -1.01516 -2.15001 
705 1 1.78377 -2.08554 -1.89812 
700 1 2.31547 -1.48724 -2.82795 
421 1 2.70344 -1.50586 -2.05385 
626 1 3.28442 -0.949541 -2.51625 
195 1 4.11528 -0.744493 -2.7526 
145 1 5.04531 -0.805132 -2.10845 
1337 2 5.29245 -1.27847 -3.23109 
1167 2 4.36492 -1.64144 -3.33595 
1156 2 4.85642 -1.63361 -2.70358 
958 1 -5.49407 0.262898 -2.50962 
489 1 -5.21408 0.0207091 -1.68087 
189 1 -4.61868 0.394533 -2.69465 
1110 2 -3.67743 -0.430515 -2.30422 
1792 2 -4.16618 -0.485668 -3.05908 
692 1 -4.47746 0.312374 -1.77429 
1206 2 -3.16485 0.0273287 -2.97232 
886 1 -1.81146 -0.439578 -3.50897 
1352 2 -2.83671 -0.277309 -2.11833 
1683 2 -2.31244 0.214022 -2.4708 
234 1 -1.14881 -0.505436 -2.65785 
1432 2 -1.55399 0.433642 -2.52963 
963 1 -0.199314 -0.0655486 -3.10626 
449 1 -0.384361 -0.416393 -2.3731 
95 1 0.624641 0.111116 -2.83123 
1680 2 1.88004 -0.61612 -2.74451 
80 1 1.41583 0.488781 -2.82626 
1059 2 2.56271 -0.22087 -2.52365 
895 1 2.15657 0.576191 -2.01063 
1819 2 3.48623 -0.0360867 -2.18005 
1229 2 3.47906 0.259653 -3.19349 
1803 2 4.20833 0.417395 -2.61998 
42 1 4.95464 -0.306546 -3.04825 
518 1 5.57792 -0.0775656 -2.47575 
1361 2 -5.03384 1.27264 -2.03688 
1654 2 -5.88796 0.913222 -1.80446 
1172 2 -4.47176 1.82906 -2.77152 
1485 2 -3.73504 2.13995 -3.063 
32 1 -3.58397 0.772988 -2.57767 
124 1 -2.48226 1.66434 -3.50725 
593 1 -2.6948 1.09768 -2.46864 
1754 2 -1.41536 0.707797 -3.2232 
183 1 -2.00793 1.55257 -2.83135 
115 1 -1.16029 1.8809 -3.02718 
1830 2 -0.805861 0.49166 -2.09515 
1025 2 0.518721 1.43777 -3.3393 
1550 2 -0.615524 0.814201 -2.96176 
1444 2 0.132074 1.03085 -2.52933 
517 1 1.42806 0.792195 -3.60819 
1187 2 0.779041 1.12926 -2.09103 
1884 2 1.13797 1.56438 -2.77344 
1825 2 1.90193 1.82181 -2.16869 
90 1 2.29737 1.01774 -2.84262 
401 1 3.02116 0.872228 -2.02123 
382 1 3.2208 1.29497 -2.94336 
574 1 4.00102 1.67844 -3.13656 
232 1 4.90451 2.00732 -2.95834 
408 1 3.89372 1.26693 -2.18414 
1045 2 5.10764 0.907035 -2.94431 
1777 2 5.89892 1.18666 -2.6747 
731 1 4.66081 1.54488 -2.05295 
739 1 -5.57212 2.6893 -3.22977 
944 1 -5.16538 2.52782 -2.53174 
920 1 -5.64587 2.06584 -1.96152 
224 1 -4.27953 2.82824 -2.35224 
1282 2 -3.55118 2.61677 -3.83302 
1983 2 -3.06022 1.8971 -2.12525 
1183 2 -2.97914 2.34409 -2.80878 
1959 2 -2.13976 2.58864 -2.73523 
1446 2 -1.40806 2.71542 -2.32266 
44 1 0.125519 2.36119 -2.93853 
885 1 -0.5342 1.87234 -2.44658 
1732 2 -0.382346 3.07234 -2.26852 
1050 2 1.90848 1.99863 -3.12817 
823 1 1.68308 3.09115 -3.01664 
896 1 2.00047 3.44226 -3.78648 
653 1 1.33886 2.55857 -1.8325 
795 1 2.21595 2.9677 -2.37628 
1769 2 2.64965 2.05495 -2.39417 
2020 2 3.50429 2.20549 -2.02772 
1786 2 3.48756 2.50241 -2.88495 
2039 2 4.27365 2.71248 -2.51415 
596 1 5.53374 2.41161 -3.63952 
1779 2 5.16674 3.08265 -2.44334 
811 1 5.67396 2.21503 -2.84433 
1105 2 -5.34284 3.53695 -2.52598 
1335 2 -4.84306 4.08767 -2.99638 
1048 2 -3.89565 4.26773 -2.51557 
568 1 -3.72741 3.2652 -2.67227 
1056 2 -2.99534 4.38377 -2.22529 
474 1 -2.7061 3.7865 -3.08619 
520 1 -2.95754 3.27885 -2.39625 
720 1 -2.18748 3.60772 -2.26494 
1023 1 -1.81755 4.02595 -2.93304 
2047 2 -1.02219 3.17679 -2.95354 
612 1 -1.23447 3.88099 -2.20396 
1268 2 0.631249 4.05539 -3.24176 
1267 2 -0.0532851 3.49499 -3.01793 
871 1 -0.481155 4.1493 -1.83331 
1406 2 1.1429 3.80613 -2.57695 
23 1 2.6917 3.51026 -2.98032 
525 1 3.54417 3.47763 -2.58678 
1362 2 2.20329 4.1134 -2.28891 
1161 2 3.26022 4.33521 -2.00247 
786 1 4.0704 3.94905 -3.10321 
470 1 4.25574 3.7894 -2.14142 
1618 2 4.98727 3.34839 -3.41749 
437 1 4.72918 4.27236 -2.71382 
1072 2 5.7421 3.55042 -3.05605 
952 1 5.11081 3.97315 -1.86217 
589 1 -5.60989 4.63318 -2.18986 
662 1 -5.49303 4.96139 -3.20384 
1318 2 -4.945 -5.79877 -2.2079 
93 1 -4.89218 4.99462 -2.52906 
974 1 -4.38001 5.41166 -3.02558 
1413 2 -1.73604 5.36429 -2.87974 
1636 2 -2.60946 4.9444 -2.98521 
326 1 -2.85931 5.7996 -2.54981 
1510 2 -1.11149 5.18427 -2.38227 
1211 2 -0.943081 5.66228 -3.11849 
1814 2 -0.459861 5.41446 -1.7854 
564 1 0.00330356 4.50801 -2.50017 
1601 2 0.837416 -5.46067 -2.56766 
1585 2 -0.113507 5.73569 -2.70398 
131 1 0.279782 4.99949 -3.12982 
905 1 0.895927 4.92203 -2.33486 
361 1 1.19037 5.33756 -3.06175 
627 1 1.96019 5.35675 -2.5587 
487 1 2.67384 5.75786 -2.91616 
1234 2 2.49476 4.59674 -3.08807 
180 1 2.84168 5.56934 -1.99303 
1428 2 3.40094 4.8711 -2.83903 
1719 2 4.21865 5.08243 -2.50766 
103 1 5.54556 4.53429 -2.66261 
1126 2 5.32293 5.58291 -2.79992 
1418 2 4.48664 5.50283 -3.26868 
1489 2 5.02093 5.31011 -1.98074 
878 1 -4.8528 -4.6458 -2.06173 
847 1 -4.91929 -5.22292 -1.14978 
991 1 -5.8165 -5.69625 -0.792455 
130 1 -5.91686 -5.40405 -1.71304 
1227 2 -4.29767 -5.39613 -2.70357 
1203 2 -3.47132 -5.36033 -1.98077 
1272 2 -3.39517 -5.76982 -1.04961 
153 1 -4.20336 -5.16627 -0.600507 
1548 2 -2.74334 -5.18353 -1.52639 
1079 2 -2.59665 -5.43982 -0.736849 
1617 2 -1.79417 -5.08187 -0.896145 
832 1 -1.48791 -5.91708 -1.514 
1535 2 -1.1688 -4.63226 -1.27759 
763 1 -0.595342 -5.51059 -1.50126 
317 1 0.121499 -5.19126 -1.27924 
249 1 0.944171 -4.91794 -1.51415 
423 1 1.52754 -4.86102 -0.844724 
1571 2 2.08245 -5.79495 -1.07268 
569 1 0.954263 -4.45267 -2.3528 
1136 2 1.45871 -5.85269 -1.6425 
1957 2 2.35967 -5.38577 -1.8602 
693 1 2.36125 -4.69739 -0.888696 
1915 2 3.23618 -5.11158 -1.7534 
1611 2 2.89577 -5.57833 -1.00014 
1765 2 4.06421 -4.86751 -1.53584 
1749 2 3.76742 -5.31065 -0.79358 
1907 2 4.74323 -4.93378 -0.760225 
483 1 4.81596 -5.66473 -1.62234 
802 1 5.22259 -5.84712 -0.943348 
1844 2 5.56026 -4.83611 -0.396976 
2019 2 5.68362 -3.95987 -2.03598 
1201 2 -5.22245 -3.88872 -1.56356 
2002 2 -4.0708 -3.58366 -1.12826 
1657 2 -5.65871 -4.41112 -1.09704 
798 1 -3.03448 -4.2911 -1.38364 
524 1 -4.12638 -4.69821 -1.41112 
2010 2 -3.36577 -3.23656 -1.19771 
441 1 -2.26798 -3.8277 -1.5692 
398 1 -1.61271 -3.27183 -2.15706 
634 1 -2.63835 -4.35405 -0.433832 
659 1 -1.94142 -3.96693 -0.746979 
907 1 -0.927288 -3.77394 -0.535368 
1452 2 0.539879 -3.90878 -1.50887 
1812 2 -0.57843 -4.03765 -2.13523 
1404 2 -0.136812 -4.21086 -1.1082 
754 1 1.88044 -4.50016 -1.74011 
1770 2 1.28057 -3.67387 -1.48942 
305 1 2.78521 -4.10479 -1.51618 
976 1 3.49251 -3.73478 -1.8054 
179 1 4.11119 -3.85234 -1.02725 
137 1 3.22383 -4.26335 -0.708938 
1232 2 5.32625 -4.65468 -1.27085 
311 1 4.69656 -3.40951 -1.52181 
550 1 -4.93964 -2.95005 -0.679941 
661 1 -5.53014 -2.8545 -1.56115 
58 1 -4.76488 -2.38849 -1.43961 
1319 2 -4.58432 -3.3205 -1.89626 
682 1 -3.70483 -2.25762 -1.12543 
548 1 -3.21789 -2.17127 -0.512879 
1537 2 -3.80262 -3.00963 -1.9382 
1545 2 -2.70552 -2.81768 -1.344 
402 1 -1.29321 -3.48266 -1.26027 
1723 2 -1.621 -2.72543 -0.662703 
1908 2 -1.93383 -2.45277 -1.5315 
1216 2 -1.12533 -2.25771 -1.24712 
251 1 -0.600138 -3.09958 -1.69668 
324 1 -0.124127 -3.268 -0.868828 
573 1 0.200248 -2.80399 -1.68005 
566 1 0.980204 -2.43715 -1.93665 
994 1 0.773394 -2.96608 -0.866722 
1985 2 2.00604 -3.38799 -1.31237 
1637 2 3.07159 -2.83811 -1.53883 
215 1 1.58019 -2.43518 -1.18538 
1128 2 3.85201 -2.3641 -1.34025 
1787 2 4.64747 -2.41483 -0.969845 
475 1 5.4971 -3.04742 -1.75043 
321 1 5.83588 -3.36969 -1.00314 
1645 2 5.00379 -2.03597 -1.95983 
1492 2 5.49857 -2.01572 -1.05795 
1725 2 -5.27251 -1.15554 -1.88699 
1667 2 -5.58519 -1.82488 -1.24837 
1434 2 -4.6718 -1.3163 -1.17455 
99 1 -3.28004 -1.69939 -1.71503 
1098 2 -3.78963 -1.15571 -0.799429 
1310 2 -3.43836 -0.776382 -1.51603 
177 1 -2.76455 -1.3401 -2.44274 
606 1 -2.61878 -1.85434 -0.990663 
951 1 -2.34137 -1.35843 -1.65974 
898 1 -1.67651 -1.05599 -2.02914 
167 1 -1.3882 -1.23262 -1.16962 
1781 2 -0.345354 -1.79944 -1.55723 
714 1 -0.912331 -0.589691 -1.79339 
160 1 0.0608705 -0.678459 -1.53175 
1573 2 0.527787 -1.59305 -1.74 
1682 2 1.40554 -1.29879 -1.18813 
2046 2 2.07166 -0.730532 -1.7848 
1804 2 2.1658 -1.08603 -0.804855 
1659 2 2.89696 -0.512184 -1.6016 
846 1 2.65106 -1.96166 -1.10239 
116 1 3.43349 -1.41771 -1.3928 
962 1 4.06863 -1.09482 -1.99562 
977 1 3.95765 -1.57575 -0.496978 
1237 2 5.75547 -1.60041 -1.89154 
375 1 4.47527 -1.22718 -1.05936 
278 1 5.22415 -0.827361 -1.25767 
912 1 5.63515 -1.15269 -0.529798 
703 1 5.80262 -0.354611 -1.52404 
910 1 -4.81702 -0.145999 -0.994662 
301 1 -3.89823 -0.00108953 -0.983645 
1031 2 -2.62217 -0.490654 -1.26242 
1589 2 -1.81342 -0.0883035 -1.73977 
134 1 -3.15329 0.266959 -0.956999 
1972 2 -1.11081 0.289239 -1.43268 
1067 2 -1.8417 -0.433554 -0.883944 
842 1 0.511888 -0.15889 -2.01939 
1297 2 -0.238003 0.113148 -0.885271 
1826 2 -0.0889212 0.613457 -1.52719 
625 1 1.36756 0.23647 -2.08449 
430 1 1.76673 0.131477 -1.32131 
783 1 0.9895 -0.214007 -1.13139 
50 1 2.58106 0.289275 -1.20021 
1916 2 3.80921 -0.155959 -1.39796 
1921 2 4.42315 0.120799 -1.9413 
1953 2 4.84979 0.120244 -1.13286 
194 1 3.34155 0.811731 -1.13604 
2030 2 5.18455 0.597942 -1.86182 
1139 2 5.7866 0.526186 -1.06821 
1839 2 -4.4016 1.35462 -1.41717 
1776 2 -5.24967 0.986923 -1.20337 
761 1 -5.34539 2.08358 -1.00096 
1689 2 -3.94915 1.76039 -2.10061 
1520 2 -4.66932 0.72362 -0.36409 
1720 2 -3.45196 1.53244 -1.33639 
1727 2 -4.01695 1.02812 -0.731909 
719 1 -2.16186 1.05837 -1.7112 
561 1 -3.71189 0.446439 -1.67434 
1247 2 -3.01922 1.47617 -0.681896 
660 1 -2.77009 0.681786 -1.57622 
259 1 -1.38398 1.45561 -2.16304 
911 1 -1.46335 1.17351 -1.10932 
192 1 -0.662667 1.44823 -1.59399 
919 1 0.327986 2.10608 -1.97712 
747 1 0.0346005 1.61598 -1.09101 
1149 2 1.54521 1.31071 -1.55836 
1436 2 0.691294 0.736496 -1.36348 
1712 2 1.19722 0.961163 -0.682308 
1994 2 2.75658 1.80274 -1.46691 
1368 2 2.1248 1.33211 -0.950485 
1866 2 3.68873 1.95837 -1.15775 
837 1 4.21731 1.06218 -1.2867 
7 1 5.47957 1.85806 -2.01269 
858 1 5.12787 1.36087 -1.15504 
191 1 5.72665 1.8079 -1.13444 
446 1 -4.77696 2.39664 -1.64858 
1977 2 -5.91057 3.30041 -1.9966 
1348 2 -5.44569 2.86979 -0.254568 
1333 2 -5.10782 3.34441 -1.5571 
460 1 -3.99143 2.48021 -1.32261 
381 1 -3.49284 2.93601 -1.76759 
312 1 -4.39909 2.06814 -0.685201 
1668 2 -2.0133 2.13323 -1.90785 
2021 2 -2.62042 2.02342 -1.41297 
879 1 -2.94701 2.90743 -0.830278 
1135 2 -2.14979 1.71497 -0.517969 
966 1 -2.02321 3.01877 -0.686989 
1981 2 -1.43666 2.18968 -1.07761 
2023 2 -0.75287 2.58726 -1.67299 
1294 2 -0.0249713 2.9457 -1.40843 
394 1 1.01282 2.53199 -2.60018 
1080 2 -0.561414 2.39815 -0.73619 
1616 2 0.905135 3.25805 -1.3489 
906 1 0.801237 2.06466 -1.22979 
256 1 2.28014 2.67199 -1.26448 
641 1 3.24046 2.78307 -0.926631 
258 1 2.89133 3.1096 -1.808 
1330 2 4.41251 2.52926 -1.73379 
1522 2 4.39395 2.13733 -0.765158 
580 1 3.91692 3.2057 -0.580288 
1686 2 5.11978 2.78854 -1.55251 
1554 2 5.9214 2.93229 -1.15651 
1627 2 5.21319 2.4881 -0.667808 
1439 2 -4.42402 3.82301 -1.94041 
774 1 -5.49717 4.08172 -0.978959 
119 1 5.83635 4.27328 -1.54434 
679 1 -4.93201 4.51624 -1.55472 
1757 2 -3.53507 3.92971 -1.6365 
1619 2 -4.15547 3.52399 -1.08046 
1992 2 -1.75926 4.30186 -1.02229 
1339 2 -2.45862 4.44703 -1.50845 
772 1 -2.41431 3.09328 -1.6561 
1651 2 -2.96369 4.01843 -0.993837 
221 1 -1.0212 3.53543 -0.516955 
294 1 -1.70919 3.3668 -1.40098 
1127 2 -0.853508 4.77307 -0.894584 
438 1 -0.8342 3.53589 -1.31358 
461 1 -0.102735 3.9715 -0.898279 
498 1 0.354001 4.49351 -1.7813 
1625 2 0.387232 3.326 -2.10987 
1109 2 1.60263 3.59326 -1.7137 
1913 2 1.32734 3.2533 -0.486798 
349 1 1.30237 4.63896 -1.18646 
1730 2 2.58089 4.19557 -1.54743 
1621 2 2.10094 3.58537 -0.976758 