ITEM: TIMESTEP
16700
ITEM: NUMBER OF ATOMS
2048
ITEM: BOX BOUNDS pp pp pp
-5.9278489054463117e+00 5.9278489054463117e+00
-5.9278489054463117e+00 5.9278489054463117e+00
-5.9278489054463117e+00 5.9278489054463117e+00
ITEM: ATOMS id type x y z 
1227 2 -5.33335 -4.80176 -4.90098 
14 1 -4.78588 -5.7816 -5.18596 
333 1 -3.66436 -4.97629 5.79992 
805 1 -3.72449 -5.28225 -4.81114 
554 1 -4.45077 -5.35874 -5.71706 
91 1 -2.22877 -4.64544 -5.16688 
1958 2 -2.54805 -5.46939 5.23663 
247 1 -3.16076 -5.04194 -5.37619 
416 1 -1.21339 -4.47705 -4.81941 
1542 2 -1.52193 -5.62294 -5.25945 
1035 2 -0.713456 -5.16495 -5.2606 
1429 2 -0.120688 -4.82951 -5.85354 
495 1 0.95501 -5.8049 -5.46514 
1260 2 0.278324 -4.89237 -5.00703 
648 1 1.19188 -5.21485 5.95607 
673 1 1.29261 -5.83891 -4.55372 
575 1 1.73901 -5.34507 -5.13169 
442 1 3.03533 -4.75271 -5.25997 
1704 2 3.75302 -5.35996 5.81559 
180 1 3.82625 -4.89857 -4.74022 
1612 2 4.98232 -5.63234 -4.58851 
19 1 3.20783 -4.50702 5.76479 
1192 2 4.40514 -5.5448 -5.53943 
1799 2 5.8571 -5.20347 -4.78267 
251 1 -4.96441 -3.36334 -5.36453 
1734 2 -5.82712 -4.68792 -5.72051 
1103 2 -4.62262 -4.29177 -5.59862 
1046 2 -3.54191 -4.00003 -5.56792 
1711 2 -2.62424 -3.69077 -5.00475 
765 1 -1.67454 -4.35123 -5.66279 
1630 2 -2.78885 -3.59287 -5.90976 
2009 2 -1.93903 -3.32569 -5.57498 
227 1 -0.185022 -4.10884 -4.61934 
924 1 -0.801736 -4.02944 -5.4334 
77 1 -1.00352 -3.77827 5.73588 
1617 2 -2.00546 -3.03961 5.45429 
819 1 0.53848 -3.59034 -4.9042 
202 1 -0.000788592 -3.71238 -5.47017 
1709 2 0.687538 -4.50181 -5.50672 
1486 2 1.346 -4.36868 -4.88949 
136 1 1.48399 -2.68166 5.48088 
1790 2 1.86657 -4.02338 -5.61776 
1678 2 2.89779 -3.75166 -5.65031 
1887 2 2.43924 -4.01471 -4.9215 
1483 2 3.51334 -3.15581 5.75921 
496 1 4.0428 -4.37984 -5.51253 
511 1 5.44811 -3.78144 -5.53547 
57 1 4.64647 -3.83719 -5.83344 
223 1 4.61008 -4.36948 -5.02835 
1937 2 -5.31929 -2.65788 -4.66143 
1475 2 -4.87891 -2.1598 -5.14385 
353 1 -3.92167 -3.08108 -5.19875 
1588 2 -4.10952 -2.19789 -4.64635 
465 1 -4.38646 -2.80173 -5.72984 
218 1 -3.34429 -3.13066 -4.15743 
664 1 -2.89839 -2.67974 -4.89045 
151 1 -1.53897 -1.79516 5.84024 
236 1 -2.03378 -2.40237 -4.98104 
1379 2 -1.22844 -2.91098 -5.74076 
35 1 -1.52399 -2.40324 -4.27271 
1370 2 -1.28709 -3.34608 -4.7541 
1525 2 -0.0106278 -2.48503 -5.74088 
1820 2 0.814198 -2.10157 -5.56956 
1555 2 0.461174 -2.50505 -4.97777 
1190 2 1.76779 -1.72422 -5.43359 
547 1 1.91684 -2.86899 -5.57853 
939 1 2.51998 -2.35363 5.73553 
485 1 3.25606 -2.281 -5.79049 
1232 2 4.55153 -3.27971 -4.64256 
904 1 3.94155 -1.99761 -5.18774 
475 1 4.12452 -1.71913 5.88324 
1129 2 5.29634 -2.83129 -5.00982 
1995 2 4.41403 -2.79566 -5.79986 
2032 2 -5.76585 -2.49932 -5.42742 
740 1 -5.17208 -1.30795 -4.84535 
784 1 -5.69197 -1.72918 -4.22488 
771 1 -4.70654 -0.789937 -5.4752 
1745 2 -3.59687 -1.8414 -5.37157 
833 1 -4.10899 -0.822664 -4.9775 
1733 2 -3.1617 -1.26135 5.86248 
1271 2 -2.60433 -1.38492 -5.24588 
1809 2 -2.14488 -0.94699 -5.84913 
1345 2 -1.73318 -1.12658 -5.08547 
830 1 -1.16591 -1.98047 -5.23227 
578 1 0.575389 -0.947951 -5.47535 
367 1 -0.0934111 -1.12535 5.55308 
8 1 -0.122569 -1.5812 -5.12219 
1964 2 2.59386 -1.40724 -5.742 
788 1 1.55274 -0.698144 -5.61091 
1590 2 3.70622 -0.702672 -5.70885 
1676 2 3.11502 -1.27478 -5.11132 
1259 2 3.94044 -1.19017 -4.53261 
1775 2 4.4871 -0.628395 -5.17643 
2036 2 5.16057 -0.777851 -4.61099 
308 1 -5.77437 -1.30317 -5.40287 
999 1 4.70059 -2.03611 -4.69037 
609 1 5.46943 -1.71109 -5.02079 
1797 2 -5.01859 0.557072 5.61679 
1498 2 -5.11552 0.147903 -5.01797 
1346 2 -3.6014 0.679369 -4.96096 
505 1 -3.44943 -0.411198 -5.35129 
2028 2 -4.4636 0.518733 -5.56696 
451 1 -2.37646 -0.219307 -5.17083 
789 1 -1.21826 0.325167 -5.02796 
1171 2 -0.970278 -0.688707 -5.29214 
1975 2 -0.782549 -1.03697 -4.3268 
1963 2 -0.182189 -0.504867 -4.98455 
42 1 2.606 -0.36179 -5.16516 
1852 2 1.35994 0.334908 -5.34886 
1210 2 1.55012 0.793275 5.74133 
31 1 2.34405 -0.279363 -5.90696 
1180 2 1.66901 0.290732 -4.61191 
116 1 2.46946 -0.817825 -4.25632 
560 1 3.26586 0.105474 -5.49221 
758 1 3.25005 -0.282574 -4.48268 
60 1 3.9514 0.0899128 -4.77615 
1494 2 -5.58251 0.240428 -5.80513 
1623 2 5.70451 -0.366248 -5.27914 
656 1 -5.30925 1.03364 -4.66139 
752 1 -4.87321 1.4627 -5.29174 
915 1 -5.425 1.5076 5.89513 
1962 2 -3.04799 0.994542 -5.69368 
190 1 -3.4482 1.96636 -5.36345 
1256 2 -1.75757 1.28149 -4.60453 
1736 2 -2.77592 0.773871 -4.73708 
1343 2 -2.19382 1.14523 -5.2797 
517 1 -1.14875 0.693856 5.97252 
1298 2 -1.72863 1.70289 -5.78062 
1054 2 -1.16287 1.62389 -5.13442 
842 1 0.343547 1.05581 -5.03447 
254 1 -0.560983 0.922537 -5.34701 
551 1 1.11589 1.18989 -4.7859 
380 1 1.80969 1.74237 -5.19076 
2041 2 2.28302 0.724269 -5.19642 
895 1 2.39374 2.17185 -5.82518 
760 1 1.86064 1.46075 -4.31991 
1785 2 2.57904 0.454902 -4.22247 
1882 2 2.74784 1.2462 5.86736 
1470 2 4.02616 1.27958 -4.83975 
469 1 5.34444 0.526128 -4.77787 
302 1 5.86179 1.0874 -5.36279 
1204 2 4.63474 1.75342 -5.41278 
1068 2 5.11369 1.60735 -4.71147 
1403 2 -5.04655 2.38579 -4.85496 
1377 2 -4.59296 2.84557 -5.58139 
1497 2 5.56923 2.02107 -5.33034 
1175 2 -3.21088 3.30775 -5.25419 
1142 2 -4.07884 2.75347 -4.86196 
982 1 -2.62014 2.12028 -5.00128 
1625 2 -2.98679 3.05674 -4.3801 
852 1 -2.02831 2.57706 -5.2935 
593 1 -0.962119 2.87944 -5.21608 
1884 2 0.127374 2.21128 -4.8829 
1653 2 0.748024 2.22179 -4.33878 
1506 2 0.696811 2.37665 -5.43192 
1769 2 1.25459 2.57542 -4.91969 
1130 2 1.82791 2.98456 -5.56035 
401 1 1.66437 1.95718 5.64249 
796 1 3.11483 2.43181 -5.45983 
2020 2 2.25965 3.00417 -4.88528 
574 1 3.63971 2.22611 -4.59329 
869 1 4.15987 2.67742 -5.23709 
396 1 4.82112 2.74391 -4.74251 
923 1 -5.0596 3.64708 -5.22194 
1088 2 -5.09004 4.69338 -4.84674 
45 1 -4.29013 4.18141 -5.67819 
92 1 -3.81245 4.0423 -4.92404 
676 1 -4.40811 3.64368 -4.6002 
687 1 -3.19881 4.54577 -5.51946 
1869 2 -2.31692 3.47878 -4.88699 
1934 2 -2.79974 3.68559 -5.84257 
1824 2 -1.30236 3.7783 -4.89285 
1268 2 -1.70128 3.33453 -4.32244 
1096 2 -1.88938 3.93834 -5.50378 
1480 2 -0.975505 4.33287 -5.56162 
561 1 -0.229334 3.11691 -4.717 
1336 2 -0.200275 4.31762 -4.99814 
56 1 0.30388 3.44978 -5.132 
709 1 1.50024 3.93792 -4.90802 
76 1 2.10343 3.84001 -4.17936 
1628 2 3.07466 3.4883 -4.96082 
1979 2 2.54283 3.43139 -5.73664 
884 1 2.0411 4.2913 -5.49685 
256 1 2.52343 4.32884 -4.85947 
1274 2 3.4151 3.22746 -4.39703 
1618 2 4.06925 3.69325 -4.84737 
204 1 5.68442 2.84654 -4.55627 
1640 2 5.46337 4.5533 -5.90113 
1779 2 4.39803 4.08586 -5.5748 
1073 2 4.96794 4.06569 -5.01061 
435 1 -5.53382 5.76197 -5.2155 
1670 2 -4.57317 5.12559 -5.52259 
1191 2 -4.00428 5.12241 -4.76853 
1510 2 -3.43436 5.48431 -5.23541 
1127 2 -3.99801 5.52742 -5.88946 
1551 2 -2.79217 5.4217 -4.62217 
1365 2 -2.80676 6.00068 -5.77469 
1526 2 -2.25183 -5.84828 -5.11929 
638 1 -1.87072 5.21693 -5.71627 
221 1 -1.62017 4.72758 -4.80702 
428 1 -1.13091 5.27974 -5.185 
729 1 -0.666277 5.65029 -5.84377 
350 1 0.38338 5.55148 -4.50732 
1145 2 0.606396 4.96188 -5.49259 
528 1 0.101032 5.8296 -5.25546 
2040 2 0.951014 4.66241 -4.87295 
1093 2 1.5073 5.27154 -5.68668 
1955 2 1.64887 5.13364 -4.82825 
1691 2 2.46777 5.52526 -5.2345 
777 1 2.67735 4.84186 5.89121 
1875 2 3.2591 -5.73025 -5.43138 
407 1 4.3958 5.14559 -5.30803 
501 1 3.28335 4.62475 -5.21991 
1559 2 4.07078 5.8579 -4.6846 
18 1 3.5554 5.18775 5.9283 
699 1 5.26068 5.30286 -5.0035 
1969 2 4.76763 4.56041 5.56183 
1002 1 4.12937 5.60261 5.40744 
1849 2 -5.43797 -5.34044 -3.71426 
1663 2 -3.73617 -4.50695 -3.91434 
1418 2 -4.89894 -5.01835 -4.22417 
346 1 -4.26533 5.94614 -4.43245 
1261 2 -3.1607 -4.66651 -3.27094 
508 1 -3.27647 -5.61108 -4.18877 
274 1 -2.46348 -5.4085 -3.82394 
453 1 -2.7385 -5.0276 -4.63693 
855 1 -0.957631 -4.63191 -4.03796 
1151 2 -1.0683 -5.67518 -4.52581 
5 1 -1.80662 -4.89135 -4.3746 
1291 2 -0.226647 -5.29966 -4.54598 
1338 2 0.787827 -5.3546 -3.46477 
1029 2 0.0550672 -5.47333 -3.69468 
1334 2 0.81936 -5.04201 -4.32537 
1082 2 1.87052 -4.56467 -4.16304 
959 1 2.06808 -5.82217 -3.92 
425 1 2.35472 -5.47719 -4.5957 
487 1 2.83236 -5.77553 -3.5499 
955 1 3.1821 -5.23949 -4.44533 
667 1 3.66174 -5.20268 -3.62639 
809 1 5.17487 -4.58577 -3.88464 
1358 2 5.71159 -5.72742 -4.14058 
1773 2 -4.92465 -5.38054 -3.06044 
373 1 -5.70448 -3.82016 -4.87007 
991 1 -4.96595 -3.91919 -4.07061 
1633 2 -4.02496 -4.38522 -4.84539 
273 1 -4.52646 -3.50989 -4.60127 
483 1 -4.52584 -4.00974 -3.3729 
504 1 -3.97501 -3.49555 -3.94292 
1231 2 -2.18089 -3.84608 -4.35154 
1602 2 -3.27428 -3.98816 -4.62725 
1548 2 -2.67233 -4.24945 -3.84942 
1477 2 -1.21887 -3.60169 -3.94978 
1079 2 -1.90742 -4.06175 -3.55592 
1848 2 0.19654 -2.8524 -4.27545 
413 1 0.69691 -3.10599 5.9258 
467 1 -0.128282 -4.42168 -3.81578 
782 1 0.73755 -3.94957 -4.17158 
902 1 -0.507569 -4.80852 -3.02119 
122 1 1.32695 -3.2128 -5.10802 
938 1 1.46469 -3.5237 -4.24667 
1001 1 2.18704 -3.12109 -4.59445 
1592 2 3.30088 -3.92904 -4.46683 
1528 2 2.70089 -4.43371 -4.10161 
1737 2 3.85327 -3.45664 -5.05503 
131 1 4.38833 -4.94481 -4.05463 
1198 2 3.45341 -4.35962 -3.5025 
1836 2 4.05885 -3.85512 -3.99784 
339 1 5.24766 -4.21544 -4.57481 
1902 2 5.03933 -3.27201 -3.98251 
2010 2 5.75423 -3.44459 -3.26673 
1465 2 5.82355 -2.96871 -4.24225 
1657 2 -5.34418 -3.00696 -3.63067 
1664 2 -4.72714 -2.53846 -4.09606 
1243 2 -3.74427 -2.25861 -4.00175 
1924 2 -4.26549 -2.65894 -3.37374 
196 1 -2.34315 -2.82254 -4.28053 
1911 2 -3.16504 -2.40174 -3.11796 
524 1 -2.76573 -3.22627 -3.60127 
599 1 -1.74502 -2.8303 -3.39952 
657 1 -0.985993 -2.41591 -3.73469 
1763 2 -0.508102 -2.94211 -5.1242 
1581 2 -0.585362 -3.3361 -4.283 
1645 2 1.05438 -2.55373 -4.15845 
421 1 -0.168828 -1.96348 -3.76709 
1401 2 1.29465 -2.1577 -4.81601 
1982 2 1.97088 -2.17744 -4.24256 
403 1 2.91226 -2.72101 -4.9527 
1083 2 2.42114 -1.80899 -4.84763 
639 1 3.08268 -3.05393 -4.06862 
1738 2 2.6696 -2.34277 -3.50879 
277 1 3.59785 -2.45571 -4.58615 
602 1 4.38258 -2.4332 -3.9261 
914 1 3.85345 -2.99408 -3.53004 
140 1 4.96904 -2.62741 -3.06858 
562 1 5.39273 -2.02779 -4.14273 
205 1 -4.37658 -1.34908 -4.36762 
66 1 -4.99264 -1.52305 -3.77372 
2001 2 -5.53524 -0.781505 -3.29818 
161 1 -4.14066 -1.42543 -3.5501 
717 1 -3.64718 -0.745736 -4.203 
1097 2 -3.12398 -1.65093 -4.48381 
1908 2 -2.7107 -1.9329 -3.68266 
419 1 -3.07013 -0.825069 -3.52188 
1478 2 -2.28823 -1.54777 -4.33928 
1537 2 -1.92297 -1.83503 -3.28731 
1296 2 -1.29824 -1.45431 -3.59812 
1006 1 -0.599806 -2.0048 -4.53254 
674 1 0.456603 -1.49679 -4.36267 
1573 2 -1.58472 -1.08578 -4.30648 
1870 2 -0.413161 -1.14213 -3.36289 
1644 2 0.0812553 -0.585316 -4.13927 
768 1 1.0623 -1.034 -4.73621 
427 1 0.827561 -1.69891 -3.57902 
866 1 1.89071 -0.851418 -4.77291 
581 1 1.46875 -1.3004 -3.95304 
1533 2 2.88059 -1.81321 -4.20039 
640 1 2.30352 -1.23067 -3.46369 
1363 2 3.51106 -1.49705 -3.85698 
2048 2 4.50837 -1.08946 -4.13987 
1110 2 5.0289 -1.21508 -3.40196 
1615 2 -5.6343 -0.39195 -4.54447 
1634 2 -4.83932 -0.37311 -4.04466 
1830 2 -4.37407 0.174106 -4.69075 
1111 2 -4.09821 0.0816045 -3.70871 
1184 2 -3.36814 0.463125 -4.05627 
214 1 -2.35472 -0.466783 -3.95618 
701 1 -2.93602 -0.351115 -4.55168 
1643 2 -2.77682 0.427105 -3.46649 
749 1 -1.78336 -0.0115115 -4.55361 
615 1 -1.42896 -0.1084 -3.6631 
408 1 -0.924398 0.0126041 -4.2991 
1572 2 0.551113 -0.0104476 -5.01764 
80 1 -0.213306 0.289546 -3.84049 
1223 2 0.971943 -0.125427 -4.25824 
1673 2 1.11355 -0.514143 -3.49797 
1021 1 0.577514 0.828935 -4.19141 
1777 2 1.87585 -0.00548602 -3.87105 
1412 2 3.19293 0.507679 -3.39209 
299 1 3.25002 -0.496922 -3.67172 
715 1 4.1066 -0.18173 -3.80342 
2008 2 3.58214 0.188873 -2.46992 
32 1 -5.94086 0.560402 -4.06495 
1163 2 5.70064 -0.900895 -3.89435 
872 1 4.78517 0.231722 -4.09478 
109 1 5.38309 0.0314972 -3.5731 
818 1 -5.26119 0.490079 -3.60444 
278 1 -4.56998 1.06049 -4.11827 
1728 2 -5.2881 1.94798 -3.94638 
338 1 -4.08636 1.55277 -4.84487 
230 1 -3.55936 1.43312 -3.8436 
900 1 -4.16855 0.984282 -3.44115 
689 1 -3.10822 1.71384 -4.394 
903 1 -2.55995 1.57659 -3.52552 
1550 2 -2.20778 0.66314 -4.0611 
1050 2 -1.00077 1.2295 -4.05031 
1436 2 -1.61304 0.833168 -3.45588 
1149 2 -0.652772 1.14852 -3.33381 
1364 2 -0.458877 1.72713 -4.41975 
1683 2 -0.0557431 1.78857 -3.70735 
594 1 -0.311291 0.680251 -4.62784 
50 1 1.42314 0.90362 -3.75367 
90 1 0.745788 0.553687 -3.351 
1893 2 0.700382 1.68786 -3.23447 
894 1 2.98406 1.85164 -3.98453 
171 1 2.23237 1.22221 -3.50651 
874 1 1.67955 0.669694 -2.93112 
1910 2 3.03765 1.0021 -5.00628 
1172 2 3.45331 0.953581 -4.22804 
1861 2 4.62023 1.31202 -4.13252 
1132 2 5.60544 1.46646 -3.76262 
1654 2 4.84812 1.07466 -3.3786 
1810 2 5.93663 1.93364 -4.51295 
7 1 -5.48559 2.86836 -3.73585 
1482 2 -4.55255 2.29084 -4.13752 
1512 2 -4.08712 2.22131 -3.46769 
1485 2 -3.59306 2.47037 -4.2683 
369 1 -4.05953 3.25055 -3.33751 
1794 2 -2.35632 2.98546 -3.71102 
1015 1 -2.12234 2.1164 -4.12983 
310 1 -1.31397 2.4374 -4.57345 
1607 2 -1.62945 3.08669 -3.15425 
686 1 -1.50982 2.15024 -3.65522 
208 1 -0.752389 2.63882 -3.9544 
843 1 0.296849 3.03677 -4.02177 
301 1 -0.187076 2.80935 -3.39628 
1187 2 1.19704 2.01099 -3.71532 
240 1 0.691647 2.99865 -3.30792 
1340 2 1.73012 1.98398 -2.93665 
394 1 1.76553 3.4049 -3.17083 
2039 2 2.53409 2.81755 -4.13301 
1999 2 1.77544 2.4431 -4.10405 
1214 2 2.2802 2.51407 -3.42184 
731 1 3.15082 1.41536 -2.92018 
1011 1 2.58431 1.99134 -4.78886 
621 1 3.78262 1.89472 -3.45282 
1522 2 3.46804 3.00457 -3.45738 
631 1 5.34013 2.52474 -3.66645 
726 1 4.56026 2.29956 -3.99998 
702 1 4.63887 2.06818 -3.15411 
188 1 -5.35076 3.18592 -4.50063 
1048 2 -4.43249 4.66364 -4.1258 
1278 2 5.87986 4.04729 -4.21717 
69 1 -4.68102 3.29152 -3.90666 
446 1 -3.62452 3.78763 -4.0073 
755 1 -3.03341 4.25596 -4.50507 
632 1 -2.46017 4.69682 -5.10402 
250 1 -2.73837 3.9617 -3.71647 
577 1 -2.08791 4.38501 -4.14466 
1926 2 -1.07586 3.55968 -3.85441 
1161 2 -0.594397 3.99797 -4.27626 
1354 2 0.396026 4.44696 -4.24078 
1372 2 -0.0158687 4.08416 -3.65957 
885 1 0.894889 3.44387 -4.48588 
1668 2 0.967336 4.223 -3.59779 
478 1 1.39567 3.39914 -3.91795 
34 1 2.4618 3.70438 -3.51506 
653 1 3.1149 4.19384 -4.20199 
835 1 3.26743 3.98114 -3.22728 
1562 2 4.11774 3.38084 -3.8531 
1977 2 4.53815 3.2351 -3.2598 
775 1 3.87518 4.74423 -4.66457 
262 1 3.94385 4.40083 -3.7924 
1349 2 5.87877 4.37211 -5.07189 
1439 2 5.20187 3.62308 -3.88085 
412 1 -5.29698 5.56954 -4.26037 
662 1 -5.69316 5.16018 -3.51466 
342 1 -4.85254 5.47068 -3.44743 
1353 2 -3.32118 5.14049 -3.88076 
1335 2 -3.07866 4.77606 -3.14205 
255 1 -3.99452 -5.95741 -3.55687 
1038 2 -2.46027 5.29268 -3.86945 
340 1 -1.11262 4.7692 -4.10627 
1757 2 -2.11443 5.15489 -2.98168 
1329 2 -1.78714 5.70488 -4.44296 
1236 2 -1.53164 5.57138 -3.49974 
87 1 -0.472365 5.3061 -4.64446 
612 1 -0.0136145 5.22263 -3.81791 
1033 2 1.58178 4.71524 -4.05715 
237 1 0.979007 5.43437 -3.81485 
82 1 1.62598 5.72502 -3.38184 
1042 2 2.11092 4.71989 -3.39233 
1593 2 2.41326 5.16075 -4.2559 
1499 2 2.94112 4.99224 -3.46625 
1764 2 3.16664 5.56493 -4.65639 
1272 2 5.31878 5.82516 -3.2896 
1425 2 4.597 5.86523 -3.86701 
1714 2 3.57618 5.62781 -3.96418 
946 1 4.67326 4.81737 -4.09537 
825 1 5.74811 5.09796 -4.3765 
443 1 5.42854 4.71238 -3.54718 
2016 2 -4.32248 -5.00348 -3.46782 
1534 2 -4.47297 -5.42149 -2.1992 
864 1 -5.64619 -4.6625 -2.54228 
1489 2 -5.35343 5.84466 -2.19147 
1312 2 -3.61945 -5.30041 -1.82589 
1394 2 -3.76076 -5.07205 -2.66248 
1197 2 -2.35765 -4.53865 -2.72463 
1285 2 -2.91117 -4.97393 -2.352 
260 1 -2.03085 -5.51314 -3.03255 
1807 2 -1.47781 -4.31991 -2.55936 
934 1 -1.68702 -5.69406 -2.12486 
459 1 -1.23669 -5.2853 -2.6926 
326 1 -1.50594 -5.02738 -3.49692 
1818 2 0.289367 -5.75523 -2.75631 
147 1 0.268321 -4.58933 -2.79575 
1928 2 1.03375 -5.41151 -2.6972 
249 1 1.17067 -4.40618 -2.48324 
1984 2 1.88782 -5.27658 -2.6444 
1319 2 1.52709 -5.03432 -3.49579 
2019 2 2.72966 -5.20635 -2.07212 
41 1 2.37878 5.72088 -2.80016 
461 1 3.08466 5.74474 -2.289 
847 1 3.48043 -5.66915 -2.90299 
1765 2 3.22626 -4.7391 -2.58688 
586 1 4.16081 -5.54379 -2.48567 
153 1 4.52482 -5.17036 -3.16514 
542 1 5.0969 -5.33559 -2.28164 
284 1 5.47451 -4.7638 -3.0645 
878 1 -5.56457 -4.39774 -3.39873 
280 1 -5.91122 -4.13772 -4.22278 
1201 2 -4.98995 -3.53127 -1.91488 
411 1 -3.6985 -4.06196 -2.53837 
798 1 -4.97604 -4.33556 -2.70865 
246 1 -3.41659 -3.598 -3.16853 
753 1 -2.80948 -3.73516 -2.33335 
1402 2 -0.981512 -3.91618 -3.20671 
1452 2 -0.191683 -3.40164 -3.57374 
1280 2 -0.253672 -3.80154 -2.58346 
1457 2 0.339446 -3.30779 -2.88607 
107 1 0.609239 -4.15985 -3.42822 
661 1 1.45081 -3.98608 -3.26817 
321 1 3.14148 -3.48095 -3.12749 
20 1 2.3405 -3.49586 -3.67638 
550 1 2.36589 -3.96777 -2.90117 
1563 2 2.50904 -4.8193 -3.31271 
1844 2 4.17474 -4.15595 -2.97744 
137 1 3.52088 -3.48759 -2.27378 
385 1 2.80576 -3.87938 -2.25418 
1240 2 5.3471 -3.92328 -2.5349 
1655 2 4.8106 -3.79505 -3.23793 
1817 2 -5.6107 -3.55228 -2.53236 
1521 2 4.71443 -4.38681 -2.05955 
968 1 5.70057 -2.23375 -3.22097 
592 1 -5.35964 -2.09273 -3.09671 
734 1 -5.40191 -2.38133 -2.18317 
1871 2 -4.85342 -3.07735 -2.87758 
1545 2 -4.31289 -3.20212 -2.15764 
2007 2 -3.7189 -2.74031 -2.66388 
313 1 -2.35549 -3.37142 -2.89768 
1867 2 -2.46421 -2.21669 -2.72247 
1052 2 -3.06597 -2.67773 -2.17333 
388 1 -1.1981 -2.92915 -2.68045 
597 1 -0.481112 -2.64349 -3.0867 
11 1 -0.247055 -2.68836 -2.30619 
287 1 0.331666 -2.19355 -2.91799 
1580 2 1.16066 -3.12492 -2.81799 
1991 2 0.643693 -2.93262 -3.57422 
1263 2 1.78486 -2.65988 -3.37097 
998 1 0.954208 -2.09519 -2.28388 
1066 2 2.76924 -2.62507 -2.7349 
1326 2 3.49574 -2.18354 -3.17402 
928 1 4.24726 -3.50945 -1.90061 
1123 2 3.23381 -2.52554 -2.05077 
1973 2 3.93667 -2.03839 -2.40204 
754 1 4.25924 -2.91442 -2.77127 
471 1 5.59919 -2.69311 -2.51998 
296 1 4.92993 -3.03052 -2.09488 
636 1 -4.65947 -1.89628 -2.83561 
1826 2 -5.04392 -0.883186 -2.43103 
1946 2 -5.56469 -1.30375 -1.99324 
1792 2 -4.25041 -0.95366 -1.937 
291 1 -3.76138 -1.77072 -2.27465 
767 1 -3.56329 -1.38808 -3.01465 
704 1 -2.3253 -0.950524 -2.70553 
234 1 -1.86936 -0.59058 -3.17242 
37 1 -1.80207 -1.17865 -2.09165 
1781 2 -1.46365 -2.1294 -2.27944 
1635 2 -0.880747 -1.6125 -2.7865 
1517 2 -0.0697359 -1.44449 -2.28284 
1456 2 0.388122 -0.972401 -3.02292 
1832 2 1.2008 -0.805992 -2.63114 
705 1 1.62841 -1.7192 -2.88568 
377 1 1.89791 -2.02379 -2.02185 
106 1 2.49643 -1.58313 -2.6165 
700 1 3.08156 -1.06148 -3.03068 
1030 2 4.2787 -1.60066 -3.24838 
125 1 3.60064 -1.20729 -2.20583 
1350 2 4.87762 -1.73638 -2.54972 
1641 2 5.73651 -1.23912 -2.86819 
692 1 -4.78246 0.429661 -2.70849 
654 1 -5.48035 0.0821539 -2.30515 
1754 2 -4.56879 -0.516961 -3.11066 
1876 2 -3.44304 0.0242682 -2.9919 
824 1 -4.17227 0.325744 -1.96149 
2035 2 -3.85289 -0.568363 -2.56635 
1589 2 -3.13604 -0.367883 -1.94585 
1206 2 -2.56727 0.0735041 -2.56285 
1834 2 -2.03374 0.582433 -2.87319 
898 1 -1.19504 -0.649442 -2.61397 
1761 2 -1.53161 0.210614 -2.1649 
625 1 -0.314297 -0.565416 -2.15609 
499 1 -0.737013 -0.176927 -3.19508 
630 1 -1.09286 -0.889948 -1.63686 
776 1 0.130892 0.115346 -2.80625 
447 1 0.390377 -0.127698 -1.99044 
1568 2 2.31851 -0.46508 -2.35568 
1502 2 1.85848 -0.345114 -3.09313 
1696 2 2.54303 0.00894498 -3.03452 
1314 2 3.10208 -0.26372 -1.83403 
867 1 4.4945 -0.766921 -2.31361 
846 1 4.01474 -0.442846 -3.00524 
1320 2 4.29751 0.608539 -2.74159 
297 1 -5.84773 0.134733 -3.03676 
334 1 4.79143 -0.295866 -3.15648 
241 1 5.25186 -0.294583 -2.30092 
1858 2 5.0044 0.630706 -2.23471 
1877 2 -5.61636 1.41023 -3.14908 
1986 2 -4.96764 1.32882 -2.42661 
1720 2 -4.83071 1.8285 -3.23166 
1724 2 -4.5703 1.40404 -1.74625 
1508 2 -5.8154 1.17874 -2.21953 
1282 2 -4.00223 1.80556 -2.43614 
613 1 -3.85228 0.738519 -2.61724 
94 1 -3.05599 0.823609 -2.04268 
164 1 -3.07735 1.19039 -2.95449 
259 1 -2.26321 1.34534 -2.41622 
1104 2 -1.15712 0.658724 -2.69923 
489 1 -1.88508 1.7378 -2.98683 
189 1 -1.32304 1.57606 -2.41718 
1310 2 0.114041 1.19609 -2.74135 
2022 2 -0.434345 0.774481 -2.28078 
585 1 -0.450537 2.09237 -2.14514 
963 1 1.03141 0.233067 -2.45624 
1386 2 1.13694 1.36904 -2.60027 
1838 2 1.73843 1.60273 -2.0178 
464 1 1.95721 0.537832 -2.0009 
232 1 2.34676 1.10397 -2.7281 
1953 2 4.01394 0.843423 -3.50146 
110 1 3.5086 1.22631 -2.06446 
920 1 4.5529 1.4961 -2.12567 
1803 2 5.47807 0.947319 -2.83836 
194 1 5.33429 1.97504 -2.48274 
811 1 -5.42444 2.32636 -2.39281 
926 1 -5.03902 2.87973 -3.15285 
276 1 -3.6028 3.13698 -2.45139 
516 1 -4.47435 2.85059 -2.58288 
323 1 -3.25321 2.86341 -1.71588 
1938 2 -3.36197 2.16133 -2.79144 
1415 2 -3.05094 2.60466 -3.38221 
1476 2 -2.4699 2.56498 -2.81087 
1689 2 -1.13214 3.00276 -2.40827 
719 1 -0.81401 2.05278 -3.00623 
134 1 0.189987 2.46554 -2.71423 
1616 2 -0.156853 3.43001 -2.42239 
937 1 1.39573 2.9373 -2.58909 
945 1 0.948863 2.37248 -2.12953 
896 1 1.89892 2.99249 -1.99938 
1642 2 2.51653 2.15581 -2.36669 
1461 2 3.34597 2.4429 -2.24539 
1994 2 2.93497 2.47266 -3.04071 
1105 2 3.98688 2.73068 -2.83778 
381 1 5.89261 2.32441 -3.021 
944 1 4.0211 1.72402 -2.67183 
1072 2 5.81248 3.30577 -2.30317 
1825 2 4.75424 2.90945 -2.38959 
1575 2 -5.22834 4.1806 -3.83864 
1636 2 5.83873 3.82582 -3.36828 
1527 2 -5.36291 3.881 -2.76482 
579 1 -5.53294 4.35269 -1.84568 
1413 2 -3.98189 4.60741 -3.36542 
1419 2 -4.61192 4.10846 -3.18063 
1971 2 -3.49849 3.89684 -1.45428 
989 1 -3.21746 3.6204 -3.21719 
772 1 -2.22345 3.92372 -3.00489 
1601 2 -2.84608 4.33289 -1.84144 
26 1 -2.62345 3.40593 -2.18537 
17 1 -1.54936 4.43538 -3.40274 
733 1 -2.10994 3.46435 -1.50144 
1304 2 -0.606102 3.69876 -3.08787 
568 1 -1.59091 3.82756 -2.18745 
1183 2 0.502728 3.95224 -2.87997 
361 1 -1.19838 4.40533 -2.70094 
1071 2 1.63444 4.31893 -2.84553 
1981 2 1.03069 3.90593 -2.27508 
736 1 0.704418 4.85938 -2.12962 
448 1 2.5228 3.3054 -2.4353 
1854 2 2.81437 4.61116 -2.54555 
1428 2 2.14154 4.22722 -2.12983 
552 1 3.36989 3.4879 -2.41106 
432 1 4.16443 4.03951 -2.60759 
370 1 4.6789 4.36013 -3.27852 
1333 2 5.41821 3.28863 -2.95184 
166 1 5.06125 4.25191 -2.42311 
993 1 -5.18576 5.12122 -2.8384 
952 1 -4.76758 4.92254 -2.11684 
2000 2 5.55944 5.51324 -2.36839 
1275 2 -3.59365 4.22853 -2.44188 
589 1 -4.20668 5.33833 -2.71357 
1008 1 -3.04599 -5.65958 -3.29216 
119 1 -3.46006 5.69043 -2.66818 
295 1 -2.56287 -5.94839 -2.53209 
1957 2 -2.52878 4.74477 -2.53427 
1339 2 -1.76559 4.98105 -2.03602 
1814 2 -0.78318 5.17846 -1.59424 
1543 2 -1.17906 5.41139 -2.57244 
836 1 -0.661264 4.85384 -3.28826 
1571 2 -0.787943 -5.8229 -3.67302 
564 1 0.0354977 4.75029 -2.78537 
1503 2 -0.428937 5.79481 -2.9411 
123 1 0.649351 5.16782 -3.13786 
1742 2 0.361431 5.74547 -1.94062 
652 1 1.41467 5.27057 -2.61 
490 1 2.09854 5.41476 -2.03964 
1126 2 3.57076 4.83273 -2.72084 
1318 2 3.92782 5.35593 -3.30386 
1090 2 4.28069 5.03508 -2.15748 
1178 2 4.9552 5.07804 -1.71704 
918 1 5.9223 4.67075 -2.68225 
1604 2 -5.73423 -5.71165 -3.00612 
1411 2 4.67391 5.36048 -2.77622 
666 1 -4.4087 -4.4178 -2.13579 
724 1 -5.20801 -4.90033 -1.80708 
65 1 -5.52188 -5.28604 -0.922411 
1404 2 -2.88334 -5.39164 -1.35573 
366 1 -4.63875 -4.84334 -1.19542 
890 1 -3.9729 -4.90141 -0.407204 
1783 2 -2.03128 -4.83335 -1.81294 
1454 2 -2.08594 -5.17644 -0.828692 
1106 2 -1.40489 -4.68965 -1.33186 
328 1 0.351332 -5.02104 -1.97952 
678 1 -0.524366 -5.26873 -2.1249 
245 1 0.786026 -5.17422 -1.09309 
1051 2 -0.177721 -4.67741 -0.14238 
85 1 -0.198516 -5.44457 -1.0883 
1189 2 1.7572 5.90813 -0.768682 
100 1 1.27172 -4.68912 -1.63667 
1199 2 1.88324 -5.43433 -1.71145 
1828 2 2.44275 -5.53628 -1.08649 
2004 2 3.23758 -5.0234 -1.54448 
1749 2 3.28294 -5.38707 -0.679591 
1013 1 4.69812 -5.76197 -1.57647 
182 1 5.39326 -5.6786 -1.09475 
452 1 5.79849 -5.21637 -1.70939 
2017 2 4.11371 -4.88161 -1.45841 
1387 2 5.89823 -3.97473 -1.57683 
1217 2 -5.30731 -4.05979 -1.16911 
1948 2 -4.47295 -3.794 -1.15302 
2002 2 5.85328 -4.47278 -0.713214 
21 1 -3.86363 -4.59674 -1.18167 
1442 2 -3.75891 -3.43456 -1.0937 
1289 2 -2.96109 -3.32562 -0.838184 
71 1 -2.44767 -3.92278 -1.58742 
844 1 -3.31021 -4.12083 -1.74169 
816 1 -3.0222 -4.5179 -0.906529 
677 1 -1.84576 -3.42655 -2.15326 
1047 2 -0.848209 -4.33839 -1.94149 
986 1 -1.60333 -3.63292 -1.31352 
1878 2 -0.436702 -4.49554 -0.954649 
1613 2 0.011754 -4.06095 -1.60432 
1896 2 0.631405 -3.64286 -2.1017 
1246 2 0.406109 -4.21391 -0.75802 
1894 2 1.73977 -3.28555 -1.74295 
1753 2 1.12655 -3.74144 -1.2377 
569 1 1.96187 -4.62858 -1.01538 
286 1 2.61313 -4.2268 -1.40078 
1019 1 1.9323 -4.22461 -2.15376 
1985 2 2.30329 -3.24393 -1.00984 
1530 2 3.91546 -4.60399 -2.12287 
522 1 3.5089 -3.87423 -1.38036 
216 1 3.19898 -4.2202 -0.60949 
605 1 4.61988 -3.55629 -1.16858 
1767 2 5.17289 -4.43019 -1.31094 
275 1 -5.00074 -2.57085 -1.21117 
219 1 -5.36866 -3.02875 -0.429314 
1400 2 -3.48296 -3.17865 -1.75178 
848 1 -3.377 -1.85983 -1.52407 
285 1 -4.49499 -2.25429 -1.99791 
58 1 -4.0789 -2.37277 -1.29144 
532 1 -4.42941 -2.90003 -0.321536 
1505 2 -2.65516 -2.7535 -1.35279 
1682 2 -2.16182 -2.54137 -1.88927 
324 1 -0.697658 -3.16783 -1.81662 
1391 2 -1.9106 -2.74361 -0.912954 
1069 2 -1.30143 -2.25061 -1.41638 
573 1 -0.167329 -3.11219 -1.0604 
1808 2 -0.5624 -2.15515 -0.895584 
566 1 0.591369 -2.7416 -1.61739 
347 1 0.944299 -2.83856 -0.867918 
211 1 1.48177 -2.40075 -1.43374 
1923 2 2.01141 -3.01127 -2.51687 
1947 2 2.48426 -2.92329 -1.81019 
199 1 2.3899 -2.03427 -1.28541 
1708 2 3.89504 -2.58007 -1.40864 
1787 2 4.49882 -2.57522 -0.711708 
1492 2 3.13463 -2.9064 -1.1419 
311 1 5.35277 -3.17663 -1.32516 
314 1 5.66777 -3.37715 -0.458457 
213 1 -5.7282 -2.85429 -1.54334 
1698 2 4.80004 -2.12552 -1.64514 
1978 2 5.4678 -2.04705 -1.03275 
1167 2 -5.56015 -1.56538 -1.16164 
1299 2 -4.81575 -1.24048 -1.45552 
1972 2 -3.7183 -0.933356 -1.3544 
1025 2 -3.42435 -1.17751 -0.451865 
1940 2 -4.33855 -1.46767 -0.844187 
117 1 -2.94049 -1.47308 -2.27853 
917 1 -2.88651 -2.01371 -0.787939 
548 1 -2.52085 -1.56793 -1.47116 
59 1 -1.63248 -1.39116 -1.07113 
948 1 -2.16519 -1.83047 -0.457327 
1086 2 -0.627533 -1.89022 -1.84515 
1819 2 0.227937 -1.78036 -1.49624 
468 1 -0.586649 -1.22011 -0.825803 
1916 2 0.856801 -1.12093 -1.96107 
2027 2 1.6966 -1.02101 -1.67566 
2046 2 1.21871 -1.50307 -1.24043 
1360 2 2.10146 -1.20074 -0.817732 
691 1 2.87878 -1.65145 -1.90159 
217 1 2.8203 -1.9847 -0.529744 
626 1 4.18919 -1.32452 -1.50045 
962 1 3.31973 -1.64362 -1.2345 
198 1 4.83979 -1.33657 -0.710388 
1279 2 5.56036 -1.81412 -1.99481 
279 1 5.1454 -0.878958 -1.45384 
737 1 5.86174 -0.837509 -0.642003 
958 1 -5.34926 -0.496743 -0.93136 
518 1 -5.90595 -0.363294 -1.62756 
876 1 -4.86641 -0.0730833 -1.71386 
1468 2 -5.80335 0.54483 -0.781707 
912 1 -3.42977 0.324625 -1.41478 
472 1 -4.10008 -0.00373911 -1.04067 
1432 2 -2.85482 -0.644363 -1.16777 
921 1 -2.90634 0.403614 -0.682254 
1098 2 -2.14719 -0.452776 -0.691117 
2043 2 -2.18049 -0.249753 -1.59972 
1067 2 -1.36894 -0.0540901 -1.16859 
1735 2 -0.790578 0.280624 -1.67333 
799 1 -0.0795585 -0.655768 -1.36561 
1213 2 -0.367827 0.198157 -0.824429 
160 1 0.993691 -0.304932 -1.14876 
886 1 1.63835 0.0223025 -1.66362 
837 1 1.81233 0.0285141 -0.789333 
1897 2 2.5892 -0.688267 -1.43298 
243 1 2.43368 0.494565 -1.16295 
84 1 3.56652 0.729196 -1.13907 
1952 2 4.29209 0.122206 -1.82052 
1680 2 3.67717 -0.369105 -1.26535 
1220 2 5.72639 0.569099 -1.53747 
2030 2 4.91481 0.232698 -1.11686 
1059 2 -5.30109 1.03948 -1.39751 
298 1 -5.5203 1.91372 -0.923056 
2038 2 -3.81473 1.33469 -1.06185 
1520 2 -3.54898 1.65348 -1.80876 
357 1 -2.51457 0.6842 -1.42293 
1170 2 -2.85789 1.69621 -1.07172 
397 1 -1.7865 1.07155 -1.76542 
919 1 -1.3013 1.10089 -0.973855 
303 1 -1.93693 0.57338 -0.663035 
115 1 -0.92531 1.56734 -1.57936 
660 1 -0.208366 1.55502 -1.08044 
1860 2 0.00528896 0.720465 -1.51461 
1297 2 0.795228 1.04872 -1.89743 
1944 2 1.26892 1.12467 -1.28069 
1215 2 0.678206 0.749905 -1.00561 
1967 2 2.96064 2.10584 -1.62365 
1017 1 2.85989 0.820883 -1.85411 
1158 2 2.33729 1.51483 -1.22525 
1368 2 3.6592 2.0134 -1.15398 
104 1 4.25445 1.10884 -1.43581 
16 1 -5.90575 2.01916 -1.65914 
351 1 5.08963 1.54018 -1.45262 
761 1 -4.98055 2.21464 -1.41548 
1330 2 -5.26402 3.40082 -1.80476 
966 1 -4.44453 2.26535 -0.712019 
322 1 -4.13376 2.62166 -1.72492 
1839 2 -2.84414 2.07087 -2.09008 
460 1 -3.51086 2.51197 -0.884989 
520 1 -2.7483 2.83354 -1.07765 
1959 2 -1.91209 2.54222 -2.27059 
2021 2 -1.33534 2.49117 -1.60857 
1092 2 -2.04142 2.024 -1.41187 
1756 2 -0.642288 2.93276 -1.75168 
910 1 0.163604 1.90552 -1.64995 
1247 2 0.0379026 2.89506 -1.22567 
747 1 1.44493 2.53537 -1.48096 
1107 2 1.07619 3.42383 -1.27943 
823 1 0.753925 2.01127 -1.10174 
143 1 2.17097 2.52684 -1.09981 
1866 2 3.02317 1.52666 -0.658423 
1026 2 5.12549 2.78081 -1.66528 
1686 2 4.15283 2.51448 -1.88697 
906 1 3.6091 3.03385 -0.986367 
1662 2 5.91816 3.08886 -1.53228 
974 1 -4.84966 4.54723 -1.24626 
679 1 -4.11065 4.72616 -1.01904 
1287 2 -4.34646 3.93575 -2.32961 
1325 2 -2.68138 4.00819 -0.666136 
1669 2 -4.44707 3.54956 -1.53964 
1853 2 -4.23004 3.35639 -0.593213 
1348 2 -2.19378 4.40743 -1.305 
111 1 -1.25239 3.41694 -1.05482 
86 1 -0.935029 3.97796 -1.75158 
418 1 -0.433138 3.86218 -0.959273 
1265 2 -1.86916 4.09514 -0.525496 
1679 2 0.409514 3.36879 -1.84198 
165 1 -0.392562 4.44214 -2.19135 
905 1 0.0909307 4.2853 -1.48854 
1997 2 1.64681 3.91076 -1.57038 
187 1 0.99924 4.60088 -1.09435 
181 1 2.85409 3.13057 -1.66703 
1968 2 2.1747 3.71752 -0.965952 
1913 2 2.74781 4.17423 -1.47333 
1868 2 3.47464 4.63641 -1.87397 
1405 2 3.41299 4.29095 -0.868045 
1234 2 4.16014 4.62901 -1.27254 
650 1 3.72188 3.55619 -1.6637 
355 1 5.51166 4.17127 -1.77115 
506 1 -5.7747 4.08262 -0.938679 
582 1 4.56231 3.76222 -1.81459 
258 1 5.17258 3.8641 -1.1294 
1918 2 -5.17224 5.56473 -1.25565 
2025 2 -5.10717 5.07124 -0.134165 
1362 2 -4.29036 5.76618 -0.633919 
1122 2 -4.36791 -5.87573 -1.49145 
1822 2 -3.46221 -5.88633 -0.801992 
961 1 -3.93872 4.96729 -1.83823 
203 1 -3.20153 4.95333 -1.07857 