ITEM: TIMESTEP
34400
ITEM: NUMBER OF ATOMS
2048
ITEM: BOX BOUNDS pp pp pp
-5.9367154362077956e+00 5.9367154362077956e+00
-5.9367154362077956e+00 5.9367154362077956e+00
-5.9367154362077956e+00 5.9367154362077956e+00
ITEM: ATOMS id type x y z 
1849 2 -5.01306 -4.82516 -5.0381 
1307 2 5.88888 -5.21156 -4.78145 
412 1 -5.18192 -5.74264 -5.69133 
333 1 -4.76997 5.93439 -4.95423 
508 1 -4.06964 -5.37944 -5.49343 
5 1 -3.36655 -5.27666 -5.08466 
1301 2 -1.95506 -5.59497 -5.75615 
91 1 -2.38038 -4.99094 -5.07541 
1029 2 -0.703367 -4.91265 -5.8823 
1151 2 -1.03881 -5.82541 -4.41879 
1801 2 -1.28449 -5.53216 -5.29153 
1571 2 0.126919 -4.75237 -5.49344 
1338 2 -0.420831 -5.24061 -5.00302 
1563 2 0.737468 -4.79937 -4.9236 
1013 1 0.759529 -5.63181 -5.44792 
575 1 1.51996 -5.32637 -5.52323 
481 1 3.2677 -5.04646 -4.65791 
223 1 2.38181 -5.25263 -5.17589 
1239 2 4.24966 -5.48907 -5.81797 
511 1 4.19526 -4.92143 -4.42554 
1846 2 4.31877 5.86927 -4.59069 
2003 2 5.35947 -5.08914 -5.47947 
1714 2 4.85153 -5.51887 -4.98767 
809 1 -5.38112 -3.74881 -5.0304 
283 1 -5.24818 -3.31369 -5.86589 
1249 2 -4.05804 -4.36417 -5.03462 
1467 2 -3.72638 -3.97209 5.86841 
1559 2 -3.22522 -4.06864 -5.21766 
1472 2 -2.49328 -3.54002 -5.52989 
1581 2 -2.56205 -4.09886 -4.70285 
902 1 -1.62901 -4.44903 -5.44938 
202 1 -0.961928 -3.92429 -5.71164 
107 1 -0.850938 -4.29909 -4.85034 
1 1 -0.250129 -3.52142 -5.51902 
1486 2 0.683896 -4.3964 5.69257 
782 1 0.470703 -3.42445 -5.92265 
819 1 0.8401 -3.56632 -4.99951 
1542 2 1.88315 -3.84367 -5.80198 
1984 2 1.30444 -4.30976 -5.50332 
547 1 1.73125 -3.22426 -4.51182 
1236 2 1.86213 -4.28778 -4.89081 
1260 2 2.79018 -3.86479 -5.39178 
1198 2 3.25273 -4.1102 -4.48827 
1341 2 4.27444 -3.60316 -4.46495 
675 1 4.01777 -4.5699 -5.35354 
1528 2 3.7401 -3.56735 -5.08536 
622 1 5.573 -4.12263 -4.82422 
684 1 4.77575 -4.3993 -4.91201 
49 1 4.84525 -3.9607 -5.62681 
1745 2 -5.86363 -2.49231 -5.61251 
1491 2 -5.6482 -2.85479 -4.69614 
353 1 -4.63015 -3.32181 -5.38206 
1465 2 -4.74052 -2.41026 -4.7011 
1475 2 -5.02962 -2.33596 -5.70675 
218 1 -3.98732 -2.97595 -5.75446 
465 1 -3.70235 -3.2241 -4.81689 
967 1 -2.16349 -2.48572 -4.78586 
773 1 -2.29571 -2.20321 -5.63193 
922 1 -3.17173 -2.74258 -5.39267 
1495 2 -1.82644 -3.37822 -4.84858 
1555 2 -1.07996 -2.87912 -5.13791 
8 1 -1.38843 -1.96606 -5.32081 
1326 2 -0.116462 -2.39518 -5.60385 
1250 2 0.580984 -2.47658 -5.07486 
1923 2 1.21186 -2.02748 -4.95971 
136 1 1.5329 -3.07293 -5.3239 
1698 2 0.522601 -2.05502 5.86504 
639 1 2.24283 -2.5606 -5.65055 
904 1 3.29431 -2.41396 -5.29183 
706 1 2.97196 -2.22563 5.80489 
485 1 2.52211 -2.88114 -5.03705 
277 1 4.01023 -2.37011 -4.55168 
1089 2 4.6125 -3.09935 -5.19384 
33 1 4.06896 -2.03817 -5.77235 
1705 2 5.49184 -2.98702 -5.05744 
1929 2 5.0772 -2.77499 5.88065 
403 1 -5.47073 -1.31246 -5.5426 
771 1 -4.59168 -0.876832 -5.60906 
1588 2 -3.47541 -1.72219 -5.24707 
212 1 -3.71344 -0.809528 -4.99793 
1296 2 -4.27957 -2.0516 -5.22612 
1171 2 -4.06039 -1.79129 -5.87885 
1975 2 -2.95187 -1.67842 -4.52119 
1713 2 -2.73893 -1.29888 -5.24472 
35 1 -0.628318 -1.62508 -5.12462 
1414 2 -1.77645 -0.966316 -4.99927 
1243 2 -1.19389 -0.507572 -5.54931 
1870 2 -0.74308 -0.64451 -4.89676 
657 1 0.0446913 -1.26434 -5.47681 
674 1 0.907852 -0.713308 -5.65715 
830 1 0.676308 -1.06228 -4.90732 
1982 2 3.0249 -1.53174 -5.02821 
1259 2 1.93563 -1.64744 -5.26318 
1190 2 2.21417 -2.07223 -4.55226 
1087 2 2.60897 -1.279 -5.83341 
1615 2 3.65346 -1.13004 -5.35581 
2014 2 3.7442 -1.40556 -4.33311 
1332 2 4.33886 -0.661588 -5.54579 
999 1 5.81656 -1.62463 -5.15677 
385 1 4.501 -2.06748 -5.00479 
1118 2 5.35118 -0.659244 -5.1035 
161 1 5.21254 -2.08598 -4.63236 
2036 2 -5.12558 0.350675 -5.94345 
1939 2 -5.79436 -0.296665 -5.03949 
505 1 -3.07052 -0.294019 -5.32762 
1111 2 -4.05468 0.214285 -4.92284 
348 1 -3.73533 -0.401795 5.90593 
769 1 -2.29899 0.0282408 -5.27739 
374 1 -1.61836 0.587455 -5.45514 
1809 2 -0.140399 -0.117829 -5.57008 
704 1 -1.11308 0.382537 -4.6656 
1570 2 0.0268978 -0.300537 -4.76886 
916 1 1.62641 -0.792753 -5.05884 
1631 2 0.638578 0.235208 -5.54713 
1785 2 1.10734 0.14005 -4.70895 
2008 2 2.01232 0.422416 -4.64814 
872 1 2.60838 -0.361108 -5.19075 
302 1 4.43738 0.211566 -5.08529 
908 1 3.41039 -0.0181093 -5.23556 
581 1 3.22581 0.316712 5.61467 
195 1 5.151 0.291595 -4.55899 
1037 2 5.15339 -0.239077 -5.86846 
230 1 -5.23301 1.13629 -5.07759 
109 1 -5.36292 1.64977 5.85784 
1346 2 -4.32097 0.510384 -5.80601 
360 1 -4.62779 1.5295 -5.57361 
689 1 -3.94819 1.99058 -5.73796 
1736 2 -3.51385 1.03399 -5.9042 
1498 2 -2.5607 1.12309 -5.04255 
1433 2 -2.70743 1.26244 -5.88239 
1343 2 -3.22709 0.591124 -5.07012 
254 1 -0.885227 0.748736 -5.37572 
1797 2 -1.6778 1.48451 -5.17104 
1058 2 -0.784093 1.84912 -5.08246 
1945 2 -1.52501 1.81023 -5.8587 
244 1 -0.141564 0.955068 -5.14522 
380 1 0.587196 1.47889 -5.88372 
827 1 0.780635 0.974361 -4.37195 
534 1 0.782446 1.25189 -5.09075 
1314 2 2.94053 0.840663 -4.73068 
570 1 2.09913 1.85226 -5.10695 
1852 2 2.60177 0.960625 -5.48701 
2037 2 3.07113 1.62732 5.57445 
1226 2 4.66241 1.5457 -5.13735 
1132 2 4.09781 1.58719 -5.90053 
1502 2 3.40762 1.28572 -5.56938 
469 1 5.91644 0.779661 -4.96571 
1572 2 5.67292 2.15046 -5.33017 
138 1 5.04762 0.693745 -5.5268 
1953 2 -5.51936 2.01147 -4.58434 
22 1 5.9135 1.19055 -5.671 
1204 2 -4.83579 2.84587 5.92448 
1717 2 -5.20073 2.52119 -5.19264 
1861 2 -4.3365 2.47824 -4.82473 
1800 2 -3.50252 2.78715 -4.76937 
1403 2 -4.74569 1.9814 -4.20237 
190 1 -3.01602 2.01675 -5.33468 
1938 2 -3.04279 3.33027 -5.506 
815 1 -2.17092 2.3366 -5.10783 
950 1 -1.85795 2.96952 -5.66192 
709 1 -1.35659 2.73096 -4.85311 
491 1 -0.948518 3.08846 -5.66675 
1979 2 -0.0399578 2.32799 -5.84438 
552 1 -0.579608 2.84649 -4.76755 
1222 2 0.151791 2.14455 -4.98196 
1085 2 1.72924 2.77569 -4.63721 
1054 2 0.96909 2.66786 -4.90642 
1322 2 0.752423 2.6659 -5.76744 
1653 2 1.53192 2.94654 -5.67736 
118 1 3.26855 2.07673 -4.79254 
780 1 2.82336 2.29482 -5.60181 
869 1 4.14336 2.31605 -4.58622 
96 1 4.99329 2.64121 -4.60928 
762 1 4.56501 2.81485 -5.40965 
178 1 5.71204 3.24451 -5.11625 
396 1 -5.9488 3.00837 -4.40972 
1810 2 -5.891 2.5132 -5.92267 
97 1 -5.7977 3.67079 5.74175 
755 1 -5.29952 3.56111 -5.2662 
926 1 -4.81967 3.98719 -5.67537 
1088 2 -5.66189 4.50633 -4.8506 
882 1 -4.40844 3.56687 -4.82125 
676 1 -3.97271 4.03218 -5.28109 
923 1 -3.26763 4.35213 -5.07755 
1959 2 -2.38424 3.83399 -5.79195 
1476 2 -1.63 4.28872 5.73394 
1142 2 -2.14474 3.53959 -5.00012 
1336 2 -1.34158 3.94887 -5.31802 
1593 2 -0.574775 4.1025 -4.80522 
56 1 -0.246932 3.46295 -5.50095 
76 1 0.533553 3.61195 -5.25497 
1824 2 -0.704485 4.48746 -5.93422 
501 1 1.28734 4.31326 5.84387 
394 1 1.35226 4.00197 -5.2861 
653 1 2.15567 4.20004 -5.08913 
432 1 3.07206 4.60998 -5.42332 
1274 2 2.2734 3.16139 -5.23549 
1214 2 3.2224 3.41924 -5.01942 
1562 2 4.08507 3.69615 -5.16096 
1779 2 4.88239 3.93703 -5.27832 
1618 2 5.63836 4.51319 -5.65523 
1640 2 4.82008 4.34155 5.79627 
1073 2 -5.1061 5.01105 -5.57436 
514 1 -5.64062 5.7328 -5.10022 
1311 2 -4.68517 4.74298 -4.70787 
1989 2 -4.35327 5.23758 -5.61884 
1365 2 -3.9287 5.16106 -4.86966 
1526 2 -2.60526 5.80671 -5.25987 
577 1 -2.41082 4.67856 -5.30808 
797 1 -1.07508 5.45324 -5.73901 
123 1 -1.71144 4.94412 -5.01971 
276 1 -0.89305 5.16946 -4.98666 
474 1 -1.24631 5.71705 5.26658 
1692 2 0.277187 4.78402 -5.64527 
340 1 -0.144739 5.65624 -5.34626 
836 1 -0.0744995 5.40349 -4.53273 
959 1 0.755414 5.84419 -4.63959 
1756 2 0.163624 4.52642 -4.8158 
1145 2 1.0158 4.8227 -4.79619 
1354 2 0.943649 5.2051 -5.56566 
1901 2 2.68078 5.53497 -5.13995 
1002 1 2.14734 4.65583 -5.87066 
1093 2 1.75818 5.48433 -5.53072 
1704 2 2.61015 5.89011 -5.9037 
1090 2 3.63005 -5.97188 -5.13339 
473 1 3.19366 4.9787 5.67366 
440 1 4.85776 5.11851 -5.12738 
166 1 5.49744 5.6907 -5.60785 
1227 2 -4.39579 -4.85818 -4.30865 
1192 2 -5.3355 -5.32748 -4.27575 
1931 2 -3.87438 -4.713 -3.72156 
346 1 -3.98062 -5.732 -4.45453 
1203 2 -4.78431 -5.24438 -3.62078 
2000 2 -3.18975 -4.69206 -3.26163 
467 1 -2.19193 -5.2492 -4.15493 
274 1 -3.08184 -5.50672 -4.26846 
147 1 -2.8164 -5.52222 -3.39252 
1551 2 -1.30752 5.64018 -3.49902 
497 1 -1.58542 -4.74387 -4.66801 
227 1 -0.528334 -4.4851 -4.09172 
1014 1 -1.17723 -4.85921 -3.80659 
1503 2 -0.410338 -5.68081 -3.89434 
1344 2 0.308338 -5.25764 -4.29138 
1818 2 -0.455428 5.80891 -3.18446 
1081 2 1.32805 -4.7624 -4.35003 
1828 2 0.964759 -5.27036 -3.56788 
43 1 1.56258 -5.7126 -4.61861 
707 1 2.30885 -5.50583 -4.29733 
487 1 2.3972 5.89383 -3.41582 
64 1 2.98701 -5.55184 -3.82902 
2004 2 1.97557 -4.77198 -3.68331 
931 1 3.64682 -5.25026 -3.95486 
180 1 4.46441 -5.06957 -3.40877 
242 1 5.32856 -4.46347 -3.90669 
2034 2 5.34786 -5.52937 -4.14684 
1699 2 -5.83935 -5.64815 -3.47798 
373 1 -4.88839 -3.98442 -3.87768 
339 1 -5.59185 -4.46536 -3.47339 
75 1 -4.69901 -4.18207 -3.16792 
1390 2 -3.35158 -4.47072 -4.25441 
196 1 -4.55326 -3.58416 -4.62749 
1411 2 -2.638 -4.16898 -3.93609 
441 1 -3.88833 -3.66066 -3.88427 
402 1 -3.17337 -3.32049 -3.88618 
1617 2 -2.31963 -4.46977 -3.14931 
1197 2 -1.82197 -3.87702 -3.99729 
1711 2 -0.952899 -3.70596 -3.67153 
416 1 0.209677 -4.1976 -3.91144 
20 1 0.0952691 -3.99593 -4.85568 
249 1 0.937828 -4.2049 -3.44979 
569 1 1.06546 -3.7605 -4.1275 
938 1 1.65078 -3.79527 -3.51204 
1001 1 2.43967 -3.39264 -4.04557 
2019 2 2.38211 -4.39261 -4.30604 
1657 2 3.80652 -3.94278 -3.86794 
1995 2 5.062 -3.25346 -4.45774 
1887 2 4.7426 -3.69227 -3.67327 
280 1 -5.66118 -4.24605 -4.33039 
1319 2 5.70586 -3.57063 -3.11828 
1937 2 -5.54746 -3.10635 -4.00985 
1817 2 -5.28262 -3.26212 -3.23068 
1902 2 -4.60919 -2.72438 -3.94189 
1478 2 -3.77647 -2.49815 -3.81244 
965 1 -2.73241 -2.88928 -4.54793 
595 1 -2.15732 -2.9829 -3.92484 
150 1 -2.14289 -3.28684 -3.03045 
1515 2 -1.1964 -3.37005 -4.47046 
151 1 -1.38655 -2.1745 -4.42283 
236 1 -0.656959 -1.89985 -4.38951 
411 1 -1.36574 -2.62814 -3.71901 
1848 2 -0.450757 -3.1813 -4.47656 
1231 2 0.950681 -3.00483 -3.26327 
1894 2 -0.135795 -2.61286 -4.85882 
1533 2 0.477419 -2.82853 -4.25088 
1947 2 1.71984 -2.64265 -3.2508 
1580 2 1.27653 -2.44704 -4.10398 
1263 2 2.36971 -2.41551 -3.5913 
914 1 3.28496 -3.2351 -3.43593 
475 1 3.27147 -3.00666 -4.40436 
1738 2 3.05868 -2.22044 -3.10107 
754 1 4.62785 -2.71495 -3.07678 
928 1 4.0522 -2.86528 -3.78571 
1483 2 5.60404 -3.39087 -3.81218 
179 1 4.83363 -2.37625 -4.03156 
784 1 5.8488 -2.0128 -4.08585 
550 1 5.43531 -2.38373 -3.43136 
592 1 -4.51973 -1.17759 -4.66152 
1030 2 -5.38839 -0.839496 -3.49697 
205 1 -5.41802 -1.59334 -4.69035 
917 1 -4.9666 -1.76979 -3.79979 
117 1 -4.03817 -1.37874 -3.90241 
948 1 -3.37608 -1.04592 -3.4148 
833 1 -3.34579 -0.764944 -4.20949 
2032 2 -2.1065 -1.44155 -4.24346 
1664 2 -3.65844 -2.16484 -4.53458 
1097 2 -2.99832 -1.98903 -3.7095 
1271 2 -1.20926 -1.07046 -4.17569 
1573 2 -2.00963 -1.84299 -3.47799 
599 1 0.0961617 -1.607 -4.51784 
1673 2 0.366005 -0.969084 -3.23632 
1500 2 -0.425253 -0.796905 -4.10687 
421 1 1.80076 -1.067 -4.23203 
287 1 0.991546 -1.37801 -4.17745 
705 1 1.76578 -1.5496 -3.3868 
1128 2 2.9779 -1.9253 -4.01688 
427 1 2.48479 -1.10294 -3.5552 
1634 2 4.58448 -1.01533 -4.75218 
42 1 3.28176 -0.827689 -3.50742 
1257 2 3.78463 -1.90083 -3.34942 
1299 2 4.56188 -1.45379 -3.7833 
1163 2 5.31262 -1.0126 -4.28959 
1110 2 -4.9827 -0.154241 -4.9965 
1792 2 -4.67827 -0.386569 -4.22199 
1725 2 -5.69986 -0.609556 -4.23874 
818 1 -5.18492 0.341595 -3.63135 
2048 2 -3.84263 0.11427 -4.04809 
214 1 -2.57933 -0.340441 -4.44479 
1754 2 -3.07891 0.598685 -4.10919 
717 1 -2.44153 -0.747493 -3.59215 
848 1 -1.841 0.0246242 -4.57034 
594 1 -0.899092 0.142253 -3.84815 
2001 2 -2.0022 0.611499 -3.45611 
789 1 -1.67469 -0.336028 -3.60239 
451 1 -0.205423 0.556288 -4.29212 
80 1 0.487479 0.569557 -3.52054 
1644 2 0.591706 -0.542709 -3.86106 
2041 2 1.57287 -0.0617599 -3.9657 
125 1 2.62426 -0.688637 -4.50816 
1952 2 2.46914 0.184181 -3.96601 
1963 2 2.08694 -0.256369 -3.23214 
900 1 4.4167 -0.19533 -4.286 
241 1 4.22684 -0.552425 -3.50822 
700 1 3.50875 -0.404911 -4.29206 
866 1 5.92701 0.361364 -4.11946 
715 1 5.13398 -0.0910214 -3.78273 
397 1 -5.11821 0.579428 -4.3895 
1777 2 -5.29599 1.5538 -3.70648 
94 1 -4.40616 1.12994 -4.56291 
164 1 -4.21154 0.895994 -3.49476 
697 1 -3.83355 1.50222 -5.04952 
310 1 -3.62297 1.52588 -4.13481 
752 1 -2.89457 1.94747 -4.44044 
824 1 -2.52389 1.83202 -3.81646 
1876 2 -2.1902 0.933721 -4.10205 
1256 2 -1.50315 1.30757 -4.39866 
1999 2 -1.20332 1.12174 -3.61202 
1506 2 0.262515 1.96111 -4.11303 
1962 2 -0.21905 1.31794 -3.45927 
1298 2 -0.537434 1.57315 -4.30043 
551 1 1.66178 1.27997 -4.42464 
1884 2 0.766923 1.72704 -3.34064 
401 1 1.33453 0.851758 -3.52026 
1529 2 3.3941 0.539609 -3.92037 
895 1 2.60434 1.70378 -4.29596 
842 1 2.16254 1.18237 -3.53903 
894 1 3.11956 1.3952 -3.53797 
1210 2 3.81772 1.05479 -4.82405 
2027 2 4.1203 0.737407 -3.83384 
447 1 4.00324 1.61405 -3.33239 
1470 2 5.81365 1.55136 -3.9429 
1696 2 5.39024 1.59082 -4.60585 
1320 2 5.21035 1.08901 -3.7283 
1172 2 4.55507 1.18653 -4.29801 
631 1 -5.11226 3.19905 -4.47532 
731 1 -4.7228 3.05297 -3.61148 
702 1 -5.40037 2.69009 -3.65065 
1068 2 -4.3111 2.02541 -3.43597 
1512 2 -3.8527 2.53349 -4.04397 
1794 2 -2.69215 3.04291 -4.42156 
1415 2 -3.1101 2.76557 -3.70974 
1015 1 -1.66664 2.27572 -4.14925 
982 1 -0.84807 2.45197 -3.89647 
719 1 -1.71714 1.94534 -3.16191 
1668 2 -1.2681 3.40784 -3.45972 
1175 2 -2.10532 3.132 -3.80538 
593 1 -0.200546 2.89227 -3.76053 
448 1 0.706831 3.13972 -3.80386 
1967 2 1.15608 2.1718 -4.10651 
1461 2 2.67322 2.87165 -4.5193 
1158 2 2.06707 2.33813 -3.83754 
1769 2 3.1579 2.73237 -3.71798 
382 1 3.5722 1.8271 -4.06654 
1105 2 4.21618 3.04834 -3.58174 
188 1 4.56234 2.03783 -3.8284 
2020 2 3.65474 3.13582 -4.17909 
7 1 5.54648 2.57259 -3.74614 
1207 2 -5.14447 4.18067 -4.18998 
1977 2 -5.78753 3.8345 -3.83373 
369 1 -3.39547 3.84666 -4.46836 
298 1 -4.13233 3.53113 -3.94841 
1278 2 -4.50501 4.54577 -3.86542 
204 1 -2.90332 4.14216 -3.80148 
45 1 -2.45647 4.40571 -4.57277 
111 1 -2.21907 4.1654 -3.4252 
221 1 -1.74102 4.61687 -4.12095 
1378 2 -1.40341 3.61021 -4.33604 
1625 2 -0.414125 3.55902 -3.05616 
1267 2 -0.683977 3.82293 -3.89102 
1869 2 0.509347 3.92812 -3.20959 
2040 2 0.132164 4.12445 -4.0005 
885 1 0.0768007 3.18888 -4.51599 
896 1 1.09859 3.70773 -4.54303 
1607 2 0.97798 4.36714 -3.80794 
906 1 1.57438 3.4877 -3.82289 
262 1 2.18014 3.89222 -4.39513 
143 1 2.44976 3.40153 -3.41362 
370 1 3.10591 4.35299 -4.57552 
437 1 4.08561 4.6349 -4.85042 
650 1 3.07215 3.90986 -3.70041 
2039 2 4.49761 3.64858 -4.29031 
946 1 4.14388 4.46136 -3.87528 
1349 2 5.52819 4.02575 -4.57645 
1072 2 5.1663 3.48386 -3.85061 
699 1 -5.16076 5.49173 -4.202 
961 1 -5.8098 5.11098 -3.99215 
918 1 5.60027 4.57055 -3.44169 
14 1 -4.36225 5.64909 -3.79161 
1329 2 -1.91005 5.8853 -4.78645 
1527 2 -3.66321 4.75868 -4.03924 
1138 2 -3.1652 5.44787 -4.62328 
1510 2 -2.0929 5.67508 -3.91152 
1353 2 -1.10127 5.50932 -2.49049 
323 1 -0.93586 4.80081 -4.09279 
41 1 0.809732 5.42682 -3.7683 
17 1 0.0322247 5.07193 -3.66413 
638 1 1.64566 5.78976 -3.78023 
1764 2 1.80924 5.07544 -4.6447 
1926 2 2.59224 5.22192 -4.39868 
1499 2 1.94236 4.75662 -3.85868 
1847 2 3.53446 5.39271 -4.39672 
1875 2 4.60317 5.80756 -3.70856 
1854 2 3.9167 5.43055 -3.57731 
835 1 4.84926 4.84947 -4.16769 
181 1 5.56594 5.34831 -4.60744 
443 1 4.75469 4.45656 -3.17246 
798 1 5.73878 -5.14946 -2.10528 
273 1 -5.36648 -4.56541 -2.57816 
2016 2 -5.19731 -5.50274 -2.83546 
1612 2 -5.6391 5.7221 -2.48499 
1534 2 -4.24752 -5.09468 -2.97728 
1548 2 -4.42675 -5.68863 -2.31292 
1046 2 -3.42444 -5.10362 -2.42262 
1394 2 -1.66638 -4.38195 -2.33126 
974 1 -2.38361 -5.59888 -2.4872 
229 1 -1.92264 -5.31013 -3.23848 
459 1 -1.48018 -5.44159 -2.60035 
260 1 -0.905823 -4.89563 -3.1201 
1747 2 0.266194 -5.60772 -3.19271 
305 1 -0.577374 -5.15686 -2.4455 
1915 2 1.70751 -5.2721 -3.04079 
1957 2 1.05748 -5.69216 -2.59117 
1749 2 1.98191 -5.37202 -2.25211 
2017 2 2.49185 -4.91548 -3.15715 
1530 2 2.8121 -5.20916 -2.20877 
516 1 2.99661 5.93691 -2.78176 
131 1 3.72436 -5.40189 -3.07417 
19 1 4.01694 -5.63254 -2.2589 
878 1 4.8256 -5.31546 -2.68337 
1765 2 3.31478 -4.49906 -2.67818 
284 1 5.65866 -4.82013 -2.97099 
955 1 5.03649 -5.58975 -1.78431 
1851 2 -5.65565 -3.55162 -2.36386 
251 1 -4.42366 -4.23469 -2.29745 
71 1 -3.79716 -3.93976 -3.00288 
634 1 -2.9442 -3.62937 -3.03457 
753 1 -3.4933 -4.16793 -2.0211 
1425 2 -2.58871 -4.67365 -2.36254 
816 1 -2.8316 -3.79142 -2.13169 
1602 2 -1.51275 -3.95605 -3.14081 
1991 2 -0.87889 -4.14388 -2.22639 
1881 2 -0.418796 -3.77444 -2.86339 
388 1 -2.11708 -3.45246 -2.16672 
1896 2 -0.0895932 -3.31888 -3.57561 
1748 2 -0.0158706 -3.86069 -1.98716 
934 1 -0.0154735 -4.6723 -3.07466 
1019 1 1.7686 -4.14112 -2.79693 
954 1 0.928817 -4.40281 -2.75492 
1658 2 0.345757 -3.46323 -2.78853 
661 1 2.51555 -3.65997 -3.14804 
1592 2 3.04742 -4.47146 -3.56938 
981 1 3.00366 -3.4977 -2.44689 
100 1 2.9797 -4.2642 -1.48579 
245 1 2.37414 -4.06484 -2.23041 
1232 2 4.06249 -4.14449 -3.11551 
1737 2 4.4327 -4.3582 -2.27447 
1750 2 4.88968 -3.87285 -2.82931 
1871 2 5.6128 -4.165 -2.11006 
2007 2 -4.85021 -3.37554 -2.50937 
532 1 -5.59771 -2.37903 -3.09193 
99 1 -5.09725 -2.41107 -1.67665 
1545 2 -4.37588 -2.88743 -3.20118 
1442 2 -3.78678 -3.0153 -2.56201 
1911 2 -3.42109 -2.59893 -3.11093 
1867 2 -2.59614 -2.33182 -2.94466 
1537 2 -2.97133 -2.78814 -2.14732 
875 1 -1.44965 -2.93261 -2.92779 
998 1 -0.696831 -2.7139 -2.87993 
677 1 0.425404 -1.92735 -3.74194 
313 1 -0.36015 -2.30105 -3.68486 
844 1 0.228322 -2.35835 -2.82543 
106 1 0.901462 -2.08608 -2.49375 
1457 2 1.64776 -2.93516 -2.5127 
1787 2 2.41161 -2.66318 -2.70297 
1645 2 2.99294 -2.47932 -2.09559 
352 1 3.86152 -3.14512 -2.68099 
1641 2 3.77805 -2.18643 -2.36023 
1492 2 4.53514 -2.11281 -1.98095 
311 1 5.3767 -2.60998 -2.67297 
471 1 -5.86023 -2.74868 -2.09243 
140 1 -4.98086 -2.22653 -2.57285 
2035 2 -5.68428 -1.33401 -2.68312 
1279 2 -5.36686 -1.38375 -1.8921 
1350 2 -4.90843 -0.955183 -2.67256 
548 1 -4.31563 -1.74843 -3.08174 
344 1 -3.46589 -1.58791 -2.62545 
636 1 -4.15702 -2.13381 -2.21631 
37 1 -2.60672 -1.27059 -2.91356 
499 1 -1.92028 -0.869974 -2.81888 
1456 2 -1.22864 -1.45913 -3.23102 
1781 2 -1.85103 -2.17952 -2.40774 
1223 2 -0.498891 -1.20755 -3.4282 
1345 2 -0.24458 -1.35012 -2.69332 
1804 2 0.747172 -1.01061 -2.46493 
691 1 1.8228 -1.70962 -2.49367 
597 1 0.955231 -1.81172 -3.3044 
640 1 2.62345 -1.45417 -2.71998 
867 1 2.5391 -1.73287 -1.79615 
1148 2 4.40698 -1.7097 -2.74863 
116 1 3.34634 -0.964451 -2.65278 
1286 2 5.17074 -1.40631 -2.95673 
1775 2 5.63752 -1.08504 -3.52578 
1237 2 5.47612 -1.8123 -2.13487 
32 1 5.16844 -0.741992 -1.8331 
708 1 -5.21532 -0.0205719 -2.55852 
299 1 -4.57276 0.425333 -2.93068 
1184 2 -4.57507 -0.550493 -3.3271 
1104 2 -3.73073 -0.0988944 -3.0893 
1206 2 -4.03083 -0.697269 -2.41759 
1830 2 -2.89207 0.219198 -3.29919 
1025 2 -3.09481 -0.262154 -2.30816 
1432 2 -2.35284 0.18454 -2.60305 
615 1 -1.09993 -0.359374 -2.93621 
1643 2 -1.61468 0.604961 -2.69595 
630 1 -1.14511 -0.785446 -2.28691 
1834 2 -1.09487 0.290724 -2.05212 
886 1 0.32873 -0.230355 -1.80417 
517 1 -0.295027 -0.104932 -3.30937 
1021 1 0.317164 -0.0812373 -2.68819 
776 1 -0.415248 -0.434782 -2.32924 
2046 2 1.63431 -0.663234 -2.45928 
1057 2 1.18941 -0.622604 -3.09878 
749 1 1.28981 0.191275 -2.02125 
90 1 1.01461 0.348334 -2.77263 
1832 2 2.56259 -0.381259 -2.30373 
1505 2 2.97158 0.0271299 -3.1553 
1858 2 3.26217 -0.23215 -1.93697 
297 1 4.17534 -0.704817 -2.59422 
1059 2 3.71181 0.326523 -2.96186 
912 1 4.89267 -0.358219 -2.76569 
278 1 5.89911 0.0542118 -3.22481 
958 1 5.9213 -0.437023 -2.34767 
1361 2 -5.57312 1.24984 -3.03966 
1654 2 -5.63737 0.876075 -2.21576 
1803 2 -4.72964 1.27305 -2.19242 
1282 2 -4.67959 1.58648 -2.99047 
686 1 -3.76233 0.780947 -2.56497 
1839 2 -4.04606 1.79652 -2.35451 
921 1 -3.3404 1.19223 -3.31976 
903 1 -2.70771 1.51519 -3.0679 
613 1 -3.02013 0.952735 -2.39263 
494 1 -2.00001 1.49614 -2.44008 
240 1 -0.967208 1.76622 -2.33293 
1550 2 -0.740932 0.867326 -2.87293 
1683 2 0.297681 1.20252 -2.60023 
1187 2 0.721194 1.12783 -1.69211 
1050 2 1.04506 1.45475 -2.44522 
408 1 1.75526 0.733674 -2.83034 
621 1 2.82402 1.0544 -2.7 
194 1 3.23197 0.920267 -1.87217 
1825 2 2.11362 1.93824 -2.37256 
760 1 3.79053 1.26643 -2.45794 
232 1 4.52322 1.35298 -1.81798 
574 1 4.59968 1.60717 -2.78834 
1986 2 4.54005 0.529765 -3.16289 
1011 1 5.44327 1.88919 -2.40904 
2030 2 5.50043 0.959459 -2.90163 
811 1 -5.326 2.27234 -2.31574 
171 1 -4.85565 2.63422 -2.78236 
944 1 -5.69187 2.26589 -3.05411 
1092 2 -3.58974 2.34441 -3.03329 
879 1 -4.12454 3.23631 -2.91441 
460 1 -3.5549 3.02454 -2.222 
1728 2 -3.1292 2.10333 -2.45816 
2021 2 -2.33977 2.41416 -2.09965 
1247 2 -1.76497 2.92984 -2.82296 
1485 2 -2.55638 2.63736 -3.12136 
301 1 -0.632248 2.21349 -2.95547 
208 1 -0.0692213 2.02389 -2.04617 
561 1 0.311457 2.5719 -2.88442 
1183 2 -0.89937 3.20183 -2.55771 
1642 2 1.60763 2.06238 -3.04662 
478 1 0.650772 2.49559 -2.04977 
937 1 1.08533 2.8664 -2.98867 
775 1 1.46657 2.78997 -2.05733 
34 1 1.82276 3.11323 -3.1302 
1065 2 2.62481 2.25799 -3.12561 
1522 2 3.80682 2.312 -2.01022 
256 1 2.29069 3.00337 -2.51789 
1686 2 3.73886 2.58691 -2.97566 
1554 2 4.54108 2.70158 -2.74613 
726 1 5.12118 2.07104 -3.23493 
1786 2 5.06261 3.37585 -3.05131 
1662 2 -5.02398 4.04745 -3.25419 
1048 2 -4.08317 4.3804 -3.11013 
1335 2 -4.87753 3.74707 -2.46159 
568 1 -3.53666 3.65992 -3.4056 
1971 2 -4.10122 4.05019 -2.19148 
1413 2 -3.23489 4.81493 -3.05133 
751 1 -2.93057 3.55611 -2.86885 
322 1 -2.6259 3.33772 -1.80885 
1127 2 -2.49431 4.80323 -2.4648 
26 1 -2.12932 3.88905 -2.45354 
772 1 -1.46902 4.52259 -3.25951 
418 1 -1.09821 4.27778 -2.36029 
520 1 -1.62024 3.58882 -1.78436 
1071 2 0.11854 3.40236 -2.25958 
733 1 -0.630586 4.69345 -3.14002 
627 1 -0.28709 4.41925 -1.93438 
1042 2 1.39783 4.20789 -3.02323 
1997 2 0.876533 3.6398 -2.50639 
1428 2 2.18126 4.43854 -3.11576 
1913 2 1.84173 4.16683 -2.22776 
641 1 3.12453 3.39987 -2.78254 
2015 2 2.85291 4.41976 -2.56147 
582 1 4.50875 3.92272 -2.38688 
690 1 3.95957 3.94952 -3.12792 
1670 2 -5.74411 3.63452 -3.01361 
742 1 5.50361 4.34059 -2.55587 
258 1 5.12659 3.74787 -1.71422 
1333 2 -5.58937 3.22168 -2.20497 
662 1 -5.0849 5.31966 -3.37658 
453 1 -5.65516 4.80824 -2.85662 
579 1 -4.73069 4.81458 -2.21567 
825 1 -3.7027 -5.91613 -3.49403 
1008 1 -4.23289 5.37058 -2.79819 
805 1 -3.40982 5.87869 -2.65239 
1417 2 -2.84093 5.25724 -3.85551 
1339 2 -2.29641 4.48633 -1.57657 
1575 2 -2.26854 5.37114 -3.08709 
1038 2 -0.583515 5.39411 -1.9319 
1928 2 0.161278 5.84043 -2.33224 
612 1 0.13042 4.83842 -2.65336 
165 1 0.846386 5.08334 -3.01535 
736 1 1.71874 5.32608 -2.97118 
564 1 0.664535 4.59227 -2.04366 
1161 2 2.79418 4.98303 -3.4765 
871 1 2.3191 5.38999 -2.40029 
667 1 3.5967 5.54293 -2.00095 
1405 2 4.38217 5.4571 -2.8359 
1234 2 3.50199 4.83727 -2.97307 
1318 2 5.42177 5.76387 -3.48365 
1100 2 4.89223 5.14915 -2.15115 
1362 2 5.33379 5.60374 -2.66224 
504 1 -5.03895 -4.82096 -1.8816 
524 1 -5.58563 -5.25044 -1.32722 
1047 2 -4.37697 -5.77344 -1.39519 
1285 2 -3.63985 -5.4926 -1.68375 
269 1 -4.75665 -4.89281 -0.974952 
21 1 -3.58674 -4.36515 -0.819416 
1079 2 -2.2946 -4.75818 -1.46816 
1454 2 -1.94468 -5.09488 -0.674362 
1477 2 -3.03057 -5.11606 -1.28774 
1613 2 -1.34723 -4.65198 -1.57142 
672 1 -0.827709 -5.5784 -1.78174 
1985 2 -1.11006 -4.93792 -0.676814 
326 1 -1.87612 -5.83281 -1.75622 
295 1 0.0607725 -5.34061 -1.51272 
455 1 0.400824 -4.8479 -2.22665 
304 1 0.899554 -4.96836 -1.43212 
286 1 1.47566 -5.19554 -0.669058 
1930 2 1.80332 5.80792 -1.08032 
1880 2 2.71136 -5.89569 -0.488418 
1611 2 2.25312 -5.66329 -1.57002 
1859 2 3.07317 -5.48606 -1.34554 
1864 2 3.65593 -5.41857 -0.71865 
1487 2 3.65497 -4.9012 -1.93969 
1521 2 4.27252 -4.91015 -1.20598 
847 1 4.30898 5.74101 -1.43896 
153 1 5.61494 -5.73618 -1.19987 
586 1 4.9743 5.66535 -0.676356 
1844 2 5.15741 -4.92033 -0.705536 
1655 2 -5.38645 -3.93312 -1.51344 
1836 2 5.79195 -4.39082 -1.14386 
1948 2 -5.45493 -4.08896 -0.531298 
890 1 -4.27056 -4.60127 -1.43665 
2010 2 -4.61047 -3.73075 -0.892403 
1069 2 -3.76021 -3.2125 -0.968103 
1119 2 -4.70027 -3.49957 -1.70334 
398 1 -1.82267 -3.77715 -1.36514 
329 1 -2.24146 -4.04702 -0.638668 
366 1 -2.74945 -3.81606 -1.33573 
1535 2 -0.572797 -4.45188 -1.35752 
526 1 -1.02623 -3.55762 -1.15931 
1942 2 0.763262 -3.94669 -1.3619 
1812 2 0.00695723 -4.41501 -0.787691 
257 1 1.50133 -4.54563 -1.98869 
1381 2 1.29374 -4.08542 -0.760564 
1973 2 0.924837 -3.36133 -2.26538 
1066 2 1.51806 -3.52062 -1.69026 
693 1 2.15068 -4.72102 -1.37486 
1770 2 2.0906 -3.68184 -0.971581 
159 1 2.95615 -4.56638 -0.603173 
328 1 3.7269 -3.5589 -1.85394 
321 1 4.57631 -3.17533 -2.25425 
1129 2 4.98888 -4.47803 -1.5759 
522 1 4.57723 -3.89351 -0.606111 
602 1 4.50849 -3.56964 -1.44042 
767 1 -5.68215 -2.96902 -1.26486 
167 1 -4.34329 -2.19728 -1.22422 
1993 2 -3.84949 -3.14542 -1.78215 
291 1 -3.32692 -1.83845 -1.86671 
1077 2 -2.98129 -2.86024 -1.19311 
1908 2 -2.13938 -2.58332 -1.53037 
246 1 -1.19598 -3.17643 -2.03182 
1574 2 -1.13648 -2.13359 -1.49227 
986 1 -0.237634 -2.76987 -1.93637 
11 1 0.642902 -2.57597 -1.68422 
573 1 -0.163678 -3.34461 -1.0204 
377 1 1.60336 -2.0256 -1.58859 
347 1 1.3786 -2.8202 -0.867394 
1878 2 2.16178 -2.87934 -1.9728 
566 1 2.17127 -2.34451 -0.908393 
626 1 3.04479 -1.91524 -0.945032 
1708 2 2.71195 -3.19749 -1.36052 
1167 2 3.48454 -2.75125 -1.39225 
1637 2 3.29846 -3.2844 -0.704112 
1156 2 4.21085 -2.50512 -1.31145 
968 1 5.34636 -3.14586 -1.70201 
58 1 5.54711 -3.45604 -0.820431 
1445 2 5.04406 -2.38925 -1.09094 
1940 2 5.88785 -1.76128 -1.29363 
1978 2 -4.4424 -1.17896 -1.82373 
1174 2 -5.03208 -1.31876 -1.09843 
1826 2 -3.29788 -0.807452 -0.819404 
1352 2 -4.25588 -1.085 -0.990507 
1310 2 -3.68087 -0.749978 -1.55355 
234 1 -1.78304 -1.23307 -2.00894 
682 1 -2.7489 -1.32022 -2.15513 
963 1 -2.5218 -1.66165 -1.35054 
252 1 -1.48185 -1.27219 -1.16541 
419 1 -0.520789 -1.16984 -0.741608 
1635 2 -1.00143 -1.8119 -2.40217 
121 1 -0.554415 -0.793117 -1.6094 
1177 2 -0.367091 -1.89108 -1.58605 
1517 2 0.182875 -1.4537 -1.85372 
1568 2 1.28785 -1.00285 -1.77251 
1682 2 1.64962 -1.19029 -0.923073 
1086 2 0.745713 -1.592 -1.10421 
1659 2 2.17491 -0.734899 -1.58498 
1266 2 2.57389 -1.15207 -0.619518 
846 1 3.5186 -1.4197 -1.70338 
518 1 4.3759 -1.1949 -1.72128 
962 1 3.94048 -1.61747 -0.929218 
279 1 4.76905 -1.37168 -0.916237 
198 1 5.40925 -0.904041 -0.940314 
654 1 -4.89908 -0.162806 -1.70026 
737 1 -5.72668 -0.552274 -1.48778 
692 1 -5.04801 -0.293503 -0.852062 
489 1 -4.30776 0.384301 -2.04908 
472 1 -3.40742 0.47999 -1.73747 
969 1 -3.97714 0.126603 -1.24356 
1337 2 -2.58748 -0.441616 -1.58944 
259 1 -2.86819 0.572275 -1.01668 
1893 2 -1.76047 -0.285037 -0.977251 
1972 2 -1.88756 0.00340384 -1.81101 
1761 2 -0.902911 0.0170831 -1.23158 
1436 2 -0.280869 0.673617 -2.02608 
1589 2 -0.0060799 0.426714 -1.08106 
625 1 1.07074 -0.179928 -1.12577 
243 1 1.79619 0.213953 -1.33623 
1819 2 3.0015 -0.678026 -1.29111 
50 1 3.67947 0.50406 -0.730739 
783 1 2.2408 0.602353 -2.01819 
1220 2 3.97373 0.153013 -2.21127 
1360 2 3.91791 -0.35126 -1.31453 
1468 2 4.92219 0.526407 -2.25135 
1045 2 4.81173 0.104884 -1.2923 
1229 2 5.59992 0.44174 -1.66746 
1564 2 5.53299 0.504243 -0.86098 
761 1 -5.89697 1.90306 -1.87515 
1776 2 -5.43669 0.690033 -1.39613 
1622 2 -4.6715 1.06797 -1.19264 
1679 2 -3.85671 1.45875 -1.27864 
1727 2 -2.95659 1.77762 -1.81596 
2047 2 -2.43934 1.95992 -1.24008 
189 1 -2.35204 0.991842 -1.71506 
1720 2 -3.09983 1.55486 -0.677812 
823 1 -0.581721 1.54221 -1.50507 
115 1 -1.51288 1.18383 -1.60473 
44 1 -1.05855 0.915874 -0.772709 
660 1 0.49919 1.91665 -1.17535 
1386 2 1.36498 1.1363 -1.09465 
1681 2 1.77758 1.39969 -1.79876 
1297 2 1.85153 1.15738 -0.391386 
1994 2 2.5013 1.7808 -1.702 
1838 2 3.27613 1.89059 -1.43699 
1134 2 3.12013 2.01016 -2.43073 
1712 2 2.56328 1.42247 -0.823176 
464 1 3.87804 0.855784 -1.43072 
837 1 4.62885 1.12805 -0.933507 
935 1 5.33219 1.50142 -1.64317 
351 1 -4.95861 2.16329 -1.41979 
1757 2 -5.64504 3.1105 -1.28072 
966 1 -3.58071 2.7242 -1.50429 
446 1 -4.30655 2.56057 -1.84587 
739 1 -4.00102 2.44914 -0.913725 
1627 2 -5.20769 2.93889 -0.516691 
381 1 -2.15869 3.14518 -0.985827 
696 1 -2.93748 2.77068 -0.851744 
1689 2 -1.61144 2.23528 -1.2738 
1304 2 -1.42691 2.59732 -1.99826 
1981 2 -0.776797 2.42004 -1.03103 
1406 2 0.430138 3.36269 -1.50984 
1983 2 -0.469192 2.89996 -1.70241 
1616 2 0.143914 2.79048 -0.842965 
1974 2 0.923274 3.14741 -0.707409 
747 1 1.30504 2.28538 -1.37693 
828 1 2.15028 2.87536 -1.55562 
945 1 3.07197 3.06536 -1.94984 
1330 2 4.65676 2.47745 -1.88182 
1276 2 4.10496 2.12468 -1.25096 
23 1 3.70199 3.09713 -1.16453 
1439 2 5.46023 2.71661 -1.57575 
1636 2 5.52077 2.89884 -2.39231 
1026 2 4.99284 2.3357 -0.912198 
355 1 -5.12904 4.27346 -1.11439 
13 1 -5.27304 4.46397 -1.81397 
952 1 -5.8829 3.9312 -0.995346 
1419 2 -3.40992 4.41325 -2.34308 
1056 2 -4.75314 3.46553 -1.60391 
1287 2 -3.91882 3.75942 -1.3356 
1992 2 -3.15301 4.19818 -1.47186 
294 1 -1.36161 3.50365 -1.06908 
224 1 -0.868783 3.91057 -1.55773 
1646 2 -1.77709 4.47121 -0.882124 
985 1 0.407161 4.26223 -1.10269 
1023 1 -0.360206 3.89659 -0.762229 
1268 2 1.34894 3.574 -1.55391 
27 1 1.34024 4.58318 -1.05614 
183 1 3.93406 3.44362 -2.18773 
1178 2 2.45864 3.8373 -1.74385 
1610 2 2.00889 3.56721 -0.858322 
1730 2 2.81612 3.77685 -0.92589 
786 1 4.41379 3.46264 -1.31642 
1109 2 3.19502 4.28672 -1.74682 
1221 2 3.56674 4.09728 -1.072 
993 1 -5.93067 4.0444 -1.85902 
379 1 5.09726 3.44675 -0.758273 
1126 2 -5.08905 5.73022 -1.73533 
1604 2 -5.5057 5.17207 -0.967087 
1312 2 -4.73008 5.56866 -0.804293 
589 1 -3.77328 5.24921 -2.01256 
506 1 -4.26642 4.89083 -1.43028 
119 1 -3.29204 5.14011 -1.12191 
679 1 -2.82987 5.63901 -1.82841 
531 1 -2.32354 5.52062 -1.13388 
1191 2 -1.77918 5.04028 -2.16516 