ITEM: TIMESTEP
30300
ITEM: NUMBER OF ATOMS
2048
ITEM: BOX BOUNDS pp pp pp
-5.9256401906201370e+00 5.9256401906201370e+00
-5.9256401906201370e+00 5.9256401906201370e+00
-5.9256401906201370e+00 5.9256401906201370e+00
ITEM: ATOMS id type x y z 
1714 2 -5.86641 -5.00538 -5.49011 
14 1 -4.89627 -5.5187 -5.71338 
346 1 -4.11803 -5.57886 -5.09009 
333 1 -4.07127 -5.19842 5.93069 
508 1 -3.28361 -5.0598 -5.47108 
467 1 -2.42402 -4.92729 -4.66375 
91 1 -2.58809 -4.56611 -5.47029 
1151 2 -1.99071 -5.4722 5.81871 
1551 2 -0.65687 -5.24687 -5.00317 
1029 2 -1.42536 -5.43433 -5.56873 
1199 2 -0.592991 -4.82231 5.8383 
902 1 -1.80664 -4.47194 -5.25012 
1571 2 0.047418 -4.75787 -5.12202 
350 1 0.820003 -5.72584 -5.24885 
1338 2 0.939474 -4.79647 -4.70874 
428 1 1.62504 -5.43079 -5.47589 
1013 1 1.25399 5.88763 -4.53659 
442 1 2.38061 -5.26524 -5.15158 
496 1 3.24062 -4.73331 -5.19695 
575 1 3.01728 -5.19186 -4.28702 
1704 2 3.30039 -5.66877 -5.49511 
1847 2 4.09197 -5.75804 -4.82426 
1901 2 4.23533 -5.48584 -5.61353 
707 1 3.91354 -4.78226 -4.66287 
1799 2 4.97582 -5.08166 5.84707 
1239 2 5.16575 -5.4883 -5.29517 
1390 2 -5.06971 -4.53891 -5.35797 
1249 2 -4.24622 -4.35909 -5.24156 
809 1 -4.79954 -3.51783 -5.25683 
684 1 -5.31798 -3.32229 5.8701 
1472 2 -3.4876 -3.89124 -5.11975 
1630 2 -2.8659 -3.43517 -5.97227 
1617 2 -2.57377 -3.68386 -5.04558 
1711 2 -1.98053 -3.20412 -5.74309 
530 1 -0.89792 -3.923 -5.6705 
1 1 -0.486614 -4.00488 -4.73677 
413 1 -0.11921 -3.53726 -5.48976 
1542 2 0.984807 -4.35553 -5.39559 
782 1 0.782173 -3.4031 -5.18836 
1236 2 1.92445 -4.12643 -5.34883 
1082 2 3.01933 -3.43439 5.74341 
1260 2 2.79635 -3.7416 -5.36516 
2019 2 3.46656 -3.755 -4.60515 
1528 2 3.60473 -3.47931 -5.39739 
223 1 4.00229 -4.53601 -5.58244 
481 1 5.08733 -4.11964 -5.53514 
280 1 5.72995 -3.66366 -5.82301 
1705 2 -5.34339 -2.39473 -5.37807 
1745 2 -4.54429 -2.17505 -5.40421 
353 1 -3.79169 -2.71788 -5.5626 
196 1 -3.10561 -2.79902 -4.86979 
402 1 -2.40961 -2.40542 -4.91327 
218 1 -3.03147 -2.37655 -5.84086 
664 1 -2.18786 -2.07184 -5.80646 
1515 2 -1.01632 -2.79844 -5.30127 
1820 2 -0.34215 -2.31871 -5.91727 
595 1 -1.52264 -2.14619 -4.57318 
1250 2 0.463587 -2.0462 -5.88292 
1555 2 -0.307095 -2.80192 -4.81987 
1533 2 0.666791 -2.47669 -4.99926 
122 1 1.73625 -2.75979 -5.48123 
1698 2 1.47196 -2.24688 -4.59668 
547 1 1.58631 -3.43872 -4.71481 
904 1 3.31599 -2.40327 -4.96164 
779 1 2.58562 -2.58289 -5.5768 
308 1 2.95509 -2.33043 5.40755 
706 1 3.54085 -2.20637 -5.86743 
1887 2 4.60357 -3.26554 -5.21895 
1929 2 5.48746 -2.69899 -5.31817 
475 1 4.18945 -2.28067 -4.93578 
609 1 -5.50728 -1.12159 -5.87994 
562 1 -5.77758 -1.59788 -5.02366 
771 1 -4.94469 -1.20962 -4.85682 
1475 2 -4.04058 -1.61854 5.83049 
2032 2 -3.87979 -1.97018 -4.76965 
117 1 -4.14032 -0.99016 -4.61621 
1588 2 -3.54557 -1.55312 -5.30991 
1975 2 -2.80084 -1.21532 -5.39718 
1243 2 -1.89962 -0.977061 -5.03656 
1414 2 -0.658549 -0.703468 -4.69922 
967 1 -1.5756 -1.80331 -5.43719 
922 1 -0.858796 -1.55909 -5.77975 
35 1 -0.549599 -1.78975 -4.83505 
367 1 0.471165 -1.58012 -4.55882 
8 1 -0.0154307 -1.24049 -5.31583 
788 1 0.828526 -1.05063 -5.42768 
1326 2 1.29349 -1.98439 -5.46135 
1401 2 2.16156 -1.85906 -5.23425 
1087 2 3.22402 -1.48298 -5.10257 
1202 2 2.66203 -1.25151 -5.76792 
1332 2 3.56402 -0.897845 -5.90805 
277 1 4.55207 -1.85851 -5.63635 
1982 2 4.11478 -1.01546 -5.27895 
1190 2 4.32687 -1.20779 -4.47662 
999 1 5.42004 -1.46298 -5.83843 
33 1 5.11211 -1.8736 -4.8259 
1725 2 5.96836 -0.268767 -5.54215 
1110 2 -5.0372 -0.0130014 -5.17447 
2014 2 -5.74475 -0.483457 -4.71675 
701 1 -4.52052 -0.928099 -5.50142 
1111 2 -4.16087 0.367895 -5.11968 
55 1 -3.91048 -0.421174 5.75108 
833 1 -3.59919 -0.508237 -5.16386 
505 1 -2.38411 -0.357904 -4.51842 
1343 2 -3.35625 0.630559 -4.91126 
212 1 -2.66336 -0.242143 -5.3575 
374 1 -1.70986 0.211444 -4.98161 
1355 2 -1.20754 -0.646563 -5.41507 
451 1 -0.273009 0.529585 -4.40556 
244 1 -0.903005 0.55962 -5.07522 
1809 2 0.631164 -0.0243544 -4.96466 
1631 2 0.814172 0.332323 -5.854 
768 1 1.49357 -0.638637 -5.87874 
1785 2 1.41308 0.381258 -5.16385 
916 1 2.19473 -0.402099 -5.55756 
758 1 3.05948 -0.152847 -5.20642 
105 1 4.09113 0.376308 -5.76989 
334 1 4.05094 -0.0802839 -4.73145 
1083 2 5.25142 -0.834628 -4.55803 
872 1 4.83144 0.420993 -5.0573 
1257 2 5.02793 -0.673717 -5.22855 
715 1 -5.4558 0.772908 -4.51707 
469 1 -5.77359 1.20402 5.89139 
109 1 -5.17773 1.27558 -5.25049 
190 1 -4.38791 1.35284 -5.08344 
1736 2 -3.66622 0.745875 -5.71792 
689 1 -3.49905 1.95443 -5.26331 
1256 2 -2.5003 1.01088 -4.80838 
1498 2 -2.66091 1.28621 -5.597 
2001 2 -1.31288 1.4306 -4.84494 
1298 2 -0.547146 1.98468 -5.27935 
827 1 0.325147 0.993805 -4.93341 
1884 2 0.239566 2.15893 -4.7738 
482 1 -0.290989 0.93888 -5.64159 
63 1 0.757485 1.43741 -5.67742 
534 1 1.55345 1.97323 -5.84699 
1882 2 1.50088 0.812177 5.53027 
380 1 2.04544 1.73968 -5.09192 
1210 2 3.00486 0.93244 -4.99812 
1502 2 1.96705 0.763091 -5.51995 
1314 2 2.90493 1.0216 -5.8098 
1953 2 5.00062 1.81042 -5.32497 
1470 2 4.21159 1.33717 -5.06833 
195 1 5.15997 0.847406 -5.79473 
866 1 5.71973 0.794983 -5.13661 
1204 2 5.49637 1.67464 -4.61086 
1403 2 5.57196 2.08748 -5.72048 
1877 2 -5.36234 2.36426 -5.92375 
676 1 -5.57724 3.1892 -5.17549 
1800 2 -4.3925 2.91845 -5.81007 
1938 2 -3.69134 2.90531 -5.05155 
1412 2 -4.65695 2.57236 -5.16476 
546 1 -2.384 2.42987 -5.29492 
493 1 -3.13077 2.375 5.93568 
990 1 -2.37315 2.77287 5.38896 
815 1 -1.98693 2.30026 -4.51494 
619 1 -1.78991 2.76813 -5.70556 
950 1 -0.665427 3.2867 -5.73937 
1364 2 0.59077 2.57976 -5.6443 
885 1 -0.431283 3.08596 -4.87545 
1628 2 1.41979 3.08968 -5.79076 
1085 2 1.82056 2.93364 -5.04931 
1967 2 1.97371 2.45821 -4.25748 
1342 2 2.63141 3.08799 -5.08688 
118 1 2.22339 2.3826 5.70824 
570 1 2.67321 2.14489 -5.58498 
574 1 4.16652 2.47479 -4.825 
188 1 4.34763 2.9212 -5.8175 
96 1 3.6454 2.69 -5.67436 
7 1 4.83612 2.90138 -5.21838 
926 1 -4.97178 3.78058 -5.5685 
1365 2 -5.26711 4.63129 -4.90277 
1482 2 -3.30918 3.44264 -5.66061 
923 1 -3.96366 4.20969 -5.26538 
323 1 -3.25892 4.128 -4.64036 
69 1 -4.52264 3.82141 -4.62828 
1476 2 -2.73538 3.28519 -4.95456 
1772 2 -2.271 3.63484 -5.45928 
1378 2 -1.53125 3.61001 -4.7738 
221 1 -2.297 4.47865 -4.61776 
1934 2 -1.46631 4.05417 -5.63011 
1692 2 -0.827774 4.02885 -4.77071 
1336 2 -0.737535 4.45287 -5.49892 
852 1 0.2242 3.49055 -4.97603 
1756 2 0.136568 4.4661 -4.75347 
777 1 1.6683 4.33229 -5.71623 
394 1 1.58334 3.90216 -4.7055 
653 1 2.20954 4.23275 -5.05974 
1002 1 2.73437 4.72552 -5.83932 
1214 2 3.27533 3.59333 -5.00412 
1274 2 4.00567 3.90795 -5.61497 
262 1 3.1136 4.54244 -4.96257 
1562 2 4.29529 3.65717 -4.64639 
1640 2 4.83445 4.07262 -5.35202 
1088 2 5.87978 4.14983 -4.79828 
1073 2 5.74092 4.48066 -5.64303 
342 1 -5.7777 5.58904 -5.23927 
412 1 -4.92517 5.85757 -4.93285 
166 1 -5.59344 5.46969 -4.42562 
1207 2 -5.2578 4.83639 -5.73731 
1527 2 -4.43335 5.00967 -4.86161 
1989 2 -3.63766 5.24827 -5.17015 
1526 2 -2.92685 5.60283 -5.03582 
1329 2 -1.96755 -5.82978 -4.95543 
146 1 -1.94185 4.97469 -5.33904 
1510 2 -2.69848 5.38145 -4.17945 
989 1 -2.89527 4.59037 -5.4912 
797 1 -1.26102 5.34646 -5.27953 
836 1 -0.537512 5.25131 -4.74319 
751 1 -1.46305 4.82838 -4.53985 
638 1 0.257814 5.71353 -4.58376 
340 1 -0.360792 5.83848 -5.51351 
1607 2 0.750173 4.90854 -5.11527 
1193 2 1.70094 5.75426 5.52721 
1145 2 1.59218 4.9909 -4.68526 
1033 2 1.45384 5.31597 -5.51823 
1955 2 2.30448 5.37089 -5.19173 
1093 2 3.30373 5.66098 -4.74344 
437 1 4.47059 4.9252 -4.78675 
473 1 3.80094 5.00904 -5.3675 
699 1 5.07071 5.34485 -5.23583 
1227 2 -5.16818 -5.05228 -4.67801 
1203 2 -5.40533 -5.23424 -3.86908 
1612 2 -4.51248 -5.18614 -3.7151 
1411 2 -3.71613 -4.81657 -3.73644 
274 1 -3.43635 -5.83725 -3.91306 
5 1 -3.1765 -5.38478 -4.55684 
147 1 -2.64269 -5.41733 -3.7493 
497 1 -1.75236 -4.72751 -4.28991 
107 1 -0.902935 -4.56291 -3.77787 
1353 2 -1.02326 -5.66747 -4.39442 
1503 2 -0.175867 -5.26646 -4.27154 
1747 2 0.315014 -5.37605 -3.17508 
1818 2 -0.572949 -5.71204 -3.68292 
1984 2 1.82299 -4.67105 -4.54496 
1486 2 0.711393 -5.13881 -3.92563 
1563 2 1.48705 -4.80854 -3.80041 
673 1 2.08265 -5.71949 -4.56291 
64 1 3.30453 -5.43562 -3.34285 
931 1 3.81631 -5.08179 -3.86579 
131 1 4.78122 -4.8517 -3.89552 
1090 2 5.81993 -5.3347 -4.70447 
180 1 4.80282 -4.55689 -4.88686 
2034 2 5.66167 -5.66835 -3.93235 
373 1 -5.61535 -3.62585 -5.07005 
339 1 -5.40203 -4.12751 -4.21875 
75 1 -4.74315 -3.66229 -4.28781 
1559 2 -3.44298 -4.41858 -4.51138 
1931 2 -4.28288 -4.71023 -4.44011 
465 1 -4.08271 -3.63328 -3.63989 
622 1 -4.19563 -3.25319 -4.88627 
1425 2 -2.76247 -4.14386 -4.13834 
816 1 -2.99724 -3.11453 -3.46975 
1197 2 -1.79297 -3.34987 -4.90266 
1602 2 -1.95552 -3.67066 -4.10404 
1991 2 -2.24654 -3.93374 -3.36824 
855 1 -1.18411 -4.44042 -4.92665 
1848 2 -1.03245 -3.56627 -3.38329 
227 1 -0.114056 -4.26152 -3.87181 
819 1 0.389876 -3.86823 -4.44082 
20 1 1.3366 -3.8295 -3.97484 
136 1 2.11541 -3.60897 -3.80881 
1198 2 2.70329 -4.16627 -4.50052 
2004 2 3.329 -4.14232 -3.7485 
1019 1 2.65298 -3.39354 -3.3038 
1319 2 4.27822 -3.66365 -4.42384 
1592 2 4.18883 -4.01525 -3.58899 
284 1 5.64192 -4.50723 -3.97557 
1657 2 5.07798 -3.68093 -3.7718 
242 1 5.63952 -4.30184 -4.83633 
1995 2 5.30109 -3.24717 -4.62825 
1483 2 -5.68411 -2.77274 -4.47759 
1491 2 -4.93184 -2.57591 -4.56921 
1937 2 -5.00659 -2.84094 -3.71445 
784 1 -5.71339 -2.04405 -3.43603 
965 1 -3.45709 -3.22423 -4.16961 
1296 2 -3.56231 -2.28799 -3.46907 
1465 2 -4.17396 -2.37401 -4.17646 
150 1 -2.52106 -2.72899 -4.07319 
151 1 -1.73588 -2.45832 -3.75604 
236 1 -0.947533 -2.40005 -3.87215 
677 1 -1.32229 -2.59543 -3.01585 
1881 2 -1.09336 -3.24511 -4.30076 
1581 2 -0.236297 -3.18814 -3.68569 
313 1 -0.352772 -2.27718 -3.10714 
1894 2 0.314668 -2.74378 -4.30249 
1263 2 1.30801 -2.72224 -3.98767 
639 1 3.02216 -2.93094 -4.32458 
939 1 2.31327 -3.1884 -4.56831 
1947 2 1.99447 -2.44996 -3.34467 
485 1 4.01414 -2.67124 -4.21109 
928 1 4.19961 -2.93113 -3.44767 
1750 2 -5.84531 -3.22611 -3.98076 
385 1 4.82044 -2.48064 -4.15654 
550 1 5.34898 -2.49546 -3.33846 
179 1 -5.44916 -1.71857 -4.17237 
1030 2 -5.18549 -0.582836 -3.83038 
205 1 -4.84276 -1.72463 -3.13058 
161 1 -4.60971 -1.38296 -3.90094 
1664 2 -3.19723 -1.9282 -4.29351 
948 1 -3.62508 -1.0506 -3.94774 
1271 2 -2.47277 -1.48076 -4.50166 
1867 2 -2.67293 -1.86222 -3.48322 
717 1 -2.61797 -0.713337 -3.66523 
214 1 -3.12194 -0.439603 -4.46736 
1097 2 -1.78338 -1.34938 -3.82086 
1870 2 -1.23177 -1.09532 -4.34376 
599 1 0.495247 -1.90161 -3.51898 
1804 2 0.156852 -0.965245 -3.08512 
657 1 -0.17467 -1.87672 -3.95117 
1223 2 -0.398819 -0.861665 -3.81385 
830 1 1.19467 -1.46074 -3.87156 
674 1 1.35855 -1.02336 -4.77747 
287 1 1.5052 -1.60736 -3.11384 
404 1 2.28576 -0.94629 -4.60608 
1363 2 2.31328 -2.07135 -4.22753 
421 1 2.12437 -1.09284 -3.79241 
691 1 2.96658 -1.02425 -3.47247 
1676 2 3.471 -1.69368 -4.06584 
1738 2 4.24418 -1.77054 -3.63258 
403 1 5.61876 -2.02988 -4.18339 
1775 2 4.95954 -1.29966 -3.81975 
1634 2 5.85264 -0.73639 -3.88544 
1128 2 4.80771 -1.72651 -3.02737 
2048 2 -4.60801 -0.0582355 -4.32439 
900 1 5.57449 0.391831 -4.51862 
1792 2 -4.51216 -0.391309 -3.29511 
1754 2 -3.83266 0.316003 -4.17194 
848 1 -1.76832 -0.184777 -3.84921 
1876 2 -2.77146 0.681694 -4.10007 
1104 2 -1.94128 0.780076 -3.40021 
254 1 -1.00551 0.257055 -4.18707 
704 1 -0.300922 0.24287 -3.62037 
1500 2 0.164452 -0.531165 -4.4692 
1673 2 0.633105 -0.488155 -3.77858 
594 1 0.378752 0.566684 -3.68097 
517 1 0.729871 0.259301 -2.8833 
1570 2 1.17844 -0.0477164 -4.35494 
1644 2 1.86061 -0.081108 -3.66819 
2041 2 2.18599 0.336835 -4.5279 
1963 2 3.02585 0.238289 -3.76244 
427 1 3.10798 -0.512575 -4.30103 
1572 2 3.76426 0.907441 -4.31435 
42 1 3.89821 -0.573177 -3.83659 
2008 2 3.68294 0.257556 -3.0561 
125 1 4.62402 -0.0726524 -4.05037 
32 1 5.371 0.0687464 -3.71579 
278 1 -5.63649 0.423534 -3.82463 
1361 2 -5.22264 1.63933 -3.20219 
1728 2 -4.99546 2.17826 -4.22256 
697 1 -3.61918 1.61829 -4.60461 
230 1 -4.62154 1.10382 -4.24479 
824 1 -3.87317 0.990706 -3.52194 
752 1 -2.80771 2.03332 -4.6663 
903 1 -3.14854 1.62358 -3.91868 
1830 2 -1.86976 0.933006 -4.25496 
1999 2 -0.428829 1.64556 -4.43143 
1550 2 -1.16202 1.25126 -3.96879 
1962 2 -0.399064 1.36901 -3.65067 
1054 2 1.03447 2.16204 -4.08072 
80 1 0.912452 0.944777 -4.16194 
401 1 1.22495 1.45348 -4.97929 
1021 1 1.24798 0.776227 -3.35958 
551 1 1.93708 1.29469 -4.13977 
382 1 2.6756 1.73053 -4.377 
760 1 3.91303 1.99362 -4.00384 
1172 2 4.37901 0.784669 -3.63078 
232 1 4.30392 1.59303 -2.93262 
1068 2 -5.75456 1.65499 -3.99613 
1696 2 4.77172 1.34745 -4.31403 
1777 2 5.37447 1.23879 -3.79618 
1861 2 -5.549 2.28376 -5.06862 
298 1 -4.59819 3.29458 -3.71388 
882 1 -5.57323 2.87878 -3.74169 
631 1 5.60288 2.98421 -4.69264 
1959 2 -3.20847 2.89962 -4.28533 
1512 2 -4.10239 2.36761 -4.43904 
1092 2 -3.43401 2.5863 -3.5163 
1794 2 -2.61509 2.81195 -3.49451 
1175 2 -2.2691 3.22113 -4.18229 
1015 1 -2.36689 1.80506 -3.75342 
491 1 -1.27101 2.64719 -4.92069 
982 1 -1.41573 2.17365 -3.61929 
709 1 -0.870943 2.61176 -4.12992 
478 1 0.278991 2.77395 -3.37866 
1979 2 1.11126 2.56611 -4.83369 
1769 2 1.5975 2.11203 -3.51796 
561 1 1.12003 3.25979 -3.57271 
1653 2 2.8292 2.89884 -4.36719 
1461 2 2.45528 2.37735 -3.55176 
869 1 3.28611 2.16002 -4.90738 
1105 2 3.2214 2.60678 -3.51028 
1011 1 4.62112 2.18579 -3.57425 
2020 2 3.6618 3.17959 -4.18837 
2039 2 4.6249 3.46587 -3.77819 
726 1 4.78394 2.63664 -4.3548 
731 1 5.40545 2.57065 -3.70672 
369 1 -5.21355 3.2397 -4.47738 
1278 2 -5.63785 4.10467 -3.96909 
45 1 -3.8391 3.63416 -4.17053 
322 1 -3.79619 3.62681 -3.3074 
460 1 -3.05453 3.96303 -3.78298 
772 1 -2.22357 4.19163 -3.77751 
276 1 -1.54652 4.41187 -3.46707 
1142 2 -1.32519 3.49893 -3.97432 
1625 2 -0.508117 3.97169 -3.9464 
1247 2 -0.78162 3.39563 -3.20207 
552 1 0.0309256 2.92628 -4.10807 
1593 2 0.272112 4.30965 -3.87418 
2040 2 0.943033 4.61848 -4.19881 
448 1 0.750259 3.5376 -4.38986 
1267 2 1.2068 4.34595 -3.23271 
775 1 2.49072 4.00913 -4.25026 
896 1 1.8391 3.48176 -3.98218 
256 1 2.41289 3.3993 -3.31339 
143 1 3.21975 4.00548 -3.72154 
432 1 3.78377 4.56585 -4.33574 
34 1 4.03319 4.39099 -3.38141 
1779 2 5.09224 3.94814 -4.49322 
1977 2 5.38967 3.82286 -3.77816 
825 1 -4.94019 5.60267 -3.88819 
662 1 5.84585 5.07914 -3.7203 
805 1 -4.2187 5.87201 -4.34466 
1417 2 -4.74816 4.52773 -4.02065 
453 1 -4.21119 5.52244 -3.26222 
1138 2 -3.69953 4.94787 -4.26996 
1048 2 -3.87913 4.69243 -3.53959 
1413 2 -3.0585 4.93936 -3.4802 
1038 2 -1.99859 5.75989 -4.08187 
871 1 -0.350076 4.81667 -3.20788 
1191 2 -1.18703 5.72436 -3.41324 
123 1 -0.877663 4.92113 -3.95322 
41 1 -0.106855 5.27665 -3.9572 
959 1 1.74444 -5.83785 -3.72419 
1042 2 1.7291 4.70144 -3.72 
165 1 0.833195 5.6377 -3.88404 
1764 2 2.52944 5.2447 -4.21694 
1926 2 2.46717 4.87362 -3.45235 
43 1 2.65072 -5.64038 -3.70296 
1318 2 3.30203 5.28817 -3.65032 
1875 2 3.94083 5.75355 -4.07314 
1100 2 4.60695 5.74509 -3.62901 
1846 2 4.99631 -5.72552 -4.51195 
370 1 4.66254 4.70215 -3.9269 
835 1 5.41962 5.00663 -4.418 
181 1 5.30546 4.6831 -3.17921 
1192 2 -5.41819 -5.73655 -3.16715 
1126 2 -4.56684 -5.35845 -2.8485 
1604 2 -5.32777 -5.81009 -2.31287 
273 1 -5.18247 -4.58194 -2.47125 
1272 2 -4.13288 -5.35785 -2.09226 
1534 2 -3.81118 -4.88411 -2.91645 
1548 2 -3.20216 -5.13659 -2.40166 
119 1 -2.08689 -5.6101 -2.8846 
260 1 -0.937062 -4.92074 -2.88917 
229 1 -1.13502 -5.42958 -2.23119 
1014 1 -1.689 -5.1203 -3.55398 
1928 2 -0.418523 5.91208 -2.83456 
1543 2 0.612032 -5.82804 -2.48354 
295 1 0.404996 -4.88926 -2.06714 
1344 2 1.17494 -5.16017 -3.05159 
1957 2 1.28312 -5.61732 -2.10356 
1828 2 1.96704 -4.80438 -3.01274 
1081 2 2.36116 -4.55379 -3.70642 
2017 2 2.91872 -4.52654 -2.92182 
1749 2 2.86172 -4.99314 -2.28828 
1530 2 2.96999 -5.22073 -1.40635 
1765 2 3.63399 -4.69252 -1.95481 
667 1 4.23018 -5.18024 -3.09367 
847 1 4.43562 -5.4157 -2.1756 
141 1 3.6172 -5.70978 -2.19028 
955 1 5.23886 -5.33148 -2.34463 
19 1 5.20159 -5.01322 -3.07091 
2010 2 -5.58388 -3.55498 -2.28013 
251 1 -4.92747 -4.2206 -3.4241 
1851 2 -4.67228 -3.45525 -2.07894 
1871 2 -5.63984 -3.35934 -3.21285 
269 1 -4.41155 -4.11757 -2.93101 
441 1 -3.46646 -3.78338 -2.9841 
2000 2 -2.8997 -4.48925 -3.38172 
1046 2 -2.4147 -4.68554 -2.66222 
634 1 -2.70914 -3.39743 -2.56948 
1079 2 -1.70262 -4.16118 -2.85853 
1896 2 -0.744439 -3.9586 -2.59857 
416 1 0.0172814 -4.42884 -2.96996 
1231 2 -0.0600705 -3.4284 -2.94062 
249 1 0.751579 -4.12268 -3.49539 
938 1 1.60477 -3.85628 -2.96658 
954 1 0.902116 -4.36416 -2.67728 
1878 2 1.50349 -3.09507 -2.03091 
981 1 3.14844 -3.51811 -2.72879 
934 1 2.20555 -3.75247 -2.5351 
1232 2 3.83083 -4.36396 -2.90802 
100 1 3.34532 -3.75791 -2.00416 
1836 2 4.63311 -3.98739 -2.84723 
878 1 -5.75851 -4.66688 -3.17221 
1655 2 5.57913 -3.78525 -2.8833 
1817 2 -4.89305 -3.18466 -2.89325 
471 1 -5.42488 -2.27541 -2.528 
754 1 5.71161 -2.70589 -2.56496 
1545 2 -4.25611 -2.66024 -3.32019 
1902 2 -3.22741 -2.3718 -2.55671 
1442 2 -3.97622 -2.93615 -2.58609 
753 1 -2.16766 -2.8183 -2.96495 
1908 2 -2.4313 -2.05356 -2.50367 
1537 2 -1.77002 -2.11673 -1.88133 
411 1 -0.788248 -2.85167 -2.19678 
398 1 -1.64777 -3.13247 -2.2922 
1457 2 0.67012 -3.07479 -3.25942 
1942 2 0.823125 -3.31653 -2.46123 
844 1 0.687399 -2.17711 -2.65579 
597 1 1.41621 -1.99216 -2.17051 
1580 2 1.54961 -2.81483 -2.84826 
377 1 2.27779 -1.70162 -1.97446 
1645 2 3.31641 -2.46014 -2.38757 
1923 2 2.49643 -2.45806 -2.5945 
1787 2 2.39565 -2.95408 -1.93086 
1946 2 2.88756 -2.23837 -3.47573 
1001 1 3.41638 -3.12453 -3.53172 
352 1 4.12023 -3.22545 -2.61756 
1641 2 4.12359 -2.19491 -2.14458 
914 1 4.85998 -2.92942 -2.70837 
311 1 5.17868 -3.00034 -1.82689 
140 1 -4.74652 -2.14313 -2.2603 
2035 2 -5.4507 -0.879779 -2.91495 
636 1 -3.89777 -1.74905 -2.31394 
344 1 -3.18616 -1.31916 -2.19489 
592 1 -4.04118 -1.52783 -3.07682 
917 1 -3.2433 -1.07894 -3.0775 
499 1 -1.83461 -0.509088 -2.98824 
37 1 -2.46259 -0.870837 -2.55949 
1573 2 -1.80071 -1.56611 -2.99156 
1345 2 -1.06233 -1.31031 -3.4364 
1456 2 -1.09141 -1.81006 -2.42969 
234 1 -1.69778 -0.821835 -2.12688 
1517 2 -0.465903 -1.3247 -2.69556 
1568 2 0.436268 -1.11945 -2.26186 
1057 2 1.10448 -0.713609 -3.06267 
1832 2 1.88556 -0.365048 -2.65874 
705 1 2.37222 -1.41182 -2.95726 
640 1 3.04617 -1.44208 -2.3194 
867 1 3.13658 -1.70206 -1.49901 
1259 2 3.62771 -2.1186 -3.11239 
700 1 3.66103 -1.04103 -2.90199 
116 1 3.83664 -1.1919 -1.90524 
1299 2 4.90468 -1.96827 -2.15232 
1237 2 5.57207 -1.18662 -3.33526 
1279 2 5.76972 -1.4398 -2.52082 
1163 2 -4.50045 -0.685848 -2.58067 
299 1 -5.6347 -0.168253 -2.19627 
708 1 -5.71996 0.0837521 -3.03793 
397 1 -4.85665 0.249014 -2.56307 
1184 2 -3.49532 -0.0300306 -3.33392 
1350 2 -3.75301 -0.474218 -2.53986 
94 1 -3.96079 0.708642 -2.76886 
1206 2 -2.9945 -0.0199938 -2.52146 
1310 2 -2.69249 0.457166 -3.15047 
1025 2 -2.10532 0.265844 -2.49212 
1834 2 -1.21831 0.612935 -2.35644 
789 1 -1.04804 -0.221871 -3.1574 
615 1 -0.976831 -0.677768 -2.23931 
886 1 -0.211602 -0.0132194 -2.71852 
121 1 0.589564 -0.00514004 -2.11508 
90 1 1.55221 0.483054 -2.31326 
842 1 2.31828 0.816119 -2.47555 
749 1 1.20677 0.1148 -1.63409 
1952 2 2.50593 -0.186067 -3.21921 
1529 2 3.07889 -0.180435 -2.68377 
198 1 4.42696 -0.965581 -2.43855 
1220 2 4.38442 0.302039 -2.69121 
2027 2 3.76747 0.0291362 -2.19533 
241 1 4.54354 -0.629223 -3.201 
297 1 5.2227 -0.377798 -2.85201 
1468 2 5.0341 0.626194 -2.19654 
1654 2 -4.40364 1.77951 -2.8206 
1282 2 -5.18667 1.30705 -2.33182 
1320 2 5.86959 1.18303 -2.6362 
912 1 -4.77606 0.647636 -3.33237 
1839 2 -4.22561 2.01253 -3.64019 
1803 2 -4.08384 1.7684 -2.06376 
164 1 -3.14762 1.41737 -2.94065 
613 1 -2.37821 1.17015 -2.09955 
686 1 -3.26348 0.91163 -2.16744 
310 1 -2.26772 1.66056 -2.81685 
719 1 -1.51601 1.87055 -2.80762 
1643 2 -1.08658 0.933262 -3.13771 
494 1 -1.6077 1.51506 -2.01546 
2043 2 -0.344138 0.676887 -1.92021 
1436 2 -0.401043 1.02577 -2.6976 
1642 2 0.317662 1.70919 -3.60614 
1158 2 1.07909 1.70918 -3.11656 
1683 2 0.422276 1.27925 -2.63131 
895 1 2.07135 1.03799 -3.28692 
1050 2 1.48618 1.63328 -2.3476 
447 1 2.86412 1.2981 -3.65583 
894 1 3.13593 1.02799 -2.53801 
1825 2 2.49128 1.92903 -1.98965 
621 1 3.56551 1.3331 -3.21822 
944 1 4.72889 1.52779 -2.01456 
243 1 3.89175 1.20562 -2.17244 
1986 2 5.04652 0.644978 -3.06143 
811 1 5.5329 1.97231 -2.0811 
171 1 5.27218 2.01146 -3.04535 
2030 2 5.77077 0.825539 -1.89461 
204 1 -4.91616 2.6971 -2.96364 
351 1 -5.48982 2.33927 -2.29533 
2021 2 -3.36725 2.21309 -2.39411 
568 1 -3.35702 3.37869 -2.45318 
879 1 -4.11613 2.99918 -2.65888 
1689 2 -2.53857 2.59673 -2.50377 
1415 2 -1.72387 3.08696 -3.16184 
1485 2 -1.61695 2.67374 -2.30046 
1268 2 -0.805026 3.16543 -2.35309 
301 1 -0.741536 2.06386 -2.47726 
593 1 -0.548982 2.3911 -3.30756 
208 1 0.113843 2.35129 -2.41567 
1183 2 0.20353 3.38586 -2.27173 
660 1 0.947881 2.51294 -2.37514 
1994 2 2.13586 1.93258 -2.84651 
747 1 1.83652 2.68376 -1.97807 
1065 2 2.98674 2.20237 -2.71259 
828 1 2.56429 3.11285 -2.44308 
1686 2 3.82242 2.42424 -2.50487 
1786 2 3.93794 2.90242 -3.22934 
1026 2 4.36883 2.41396 -1.60147 
702 1 5.93153 2.46954 -2.98013 
1522 2 4.53458 2.7218 -2.52716 
1636 2 5.12523 2.88652 -1.89583 
1670 2 -4.73984 4.24401 -3.19854 
1072 2 -5.54801 3.86296 -3.07984 
1333 2 -4.4578 4.08657 -2.22431 
1971 2 -3.65533 4.55069 -2.74785 
381 1 -2.75169 3.74161 -2.93875 
111 1 -1.95895 4.04293 -2.83825 
26 1 -1.61122 3.87314 -1.97493 
520 1 -2.58933 3.56303 -1.97089 
17 1 -1.14061 4.36749 -2.69012 
1668 2 0.111105 3.84634 -3.16936 
516 1 0.0305158 4.511 -2.40862 
1499 2 2.04469 4.29901 -2.83809 
1071 2 0.832876 3.8232 -2.6696 
1869 2 1.68906 3.76386 -2.14076 
937 1 1.57038 3.06655 -2.83999 
1428 2 2.67066 4.23734 -2.15542 
1854 2 3.18275 4.72673 -2.78433 
906 1 3.20711 3.68982 -2.92245 
641 1 4.08106 3.75953 -2.47849 
1662 2 5.61391 3.25977 -2.57434 
1349 2 4.9682 3.29804 -2.98456 
918 1 5.37216 4.24729 -2.23931 
650 1 4.81842 3.83029 -1.84955 
742 1 4.66277 4.31411 -2.84452 
946 1 -5.86285 4.70358 -2.54921 
355 1 -5.37866 4.58048 -1.81827 
443 1 -5.36381 5.10805 -3.20356 
579 1 -3.94034 5.55859 -2.41669 
961 1 -4.74263 5.05344 -2.37438 
1008 1 -3.23343 5.82657 -3.06576 
1127 2 -2.18447 5.23376 -3.37767 
1419 2 -2.86899 4.80918 -2.75444 
589 1 -3.05806 5.6562 -2.2181 
1339 2 -2.10464 4.94022 -2.12444 
1575 2 -1.66908 5.34474 -2.80728 
612 1 0.415697 5.22562 -3.29434 
361 1 0.658352 4.96683 -2.60582 
1265 2 -0.965186 5.31826 -2.22891 
1136 2 -0.00265819 5.59926 -2.04705 
736 1 1.32763 5.44749 -3.16168 
564 1 1.15091 4.75777 -2.01334 
343 1 1.77579 5.32927 -2.44435 
182 1 2.93805 5.938 -2.7227 
487 1 2.17501 5.87142 -3.02942 
422 1 2.71404 5.42662 -2.03165 
1405 2 3.93376 5.39213 -2.8703 
1489 2 4.67879 5.51725 -2.55402 
2016 2 5.75189 5.59475 -2.36088 
1699 2 5.33195 5.87763 -3.14942 
798 1 5.84715 -4.89314 -2.11482 
504 1 -5.04736 -4.77825 -1.57118 
1261 2 -4.79913 5.90378 -1.67652 
1285 2 -3.01749 -5.24962 -1.52775 
1312 2 -3.95548 -5.84739 -1.15547 
991 1 -4.18898 -4.73784 -0.988628 
1454 2 -2.30758 -5.2104 -1.0829 
1047 2 -2.23585 -4.83862 -1.80452 
326 1 -1.43225 -5.80249 -1.57622 
1477 2 -1.56805 -4.81301 -1.20622 
305 1 -0.378533 -5.20169 -1.94088 
672 1 -0.461116 -5.64988 -1.23139 
317 1 0.216148 -5.34975 -1.32298 
459 1 1.15663 -4.7901 -1.77291 
257 1 1.59131 -4.73645 -1.0545 
1915 2 2.01134 -5.23054 -2.32409 
1859 2 2.14614 -5.60228 -1.4638 
1129 2 4.59475 -4.65139 -1.28337 
1487 2 3.7625 -4.96222 -1.18069 
802 1 5.89368 -5.28786 -1.26261 
153 1 5.00321 -5.56699 -1.54798 
1521 2 5.3167 -4.42966 -0.928315 
542 1 5.15283 5.91764 -0.693952 
1948 2 -5.74965 -4.0521 -1.22269 
1449 2 -4.87816 -3.72672 -1.35649 
524 1 -4.19412 -4.37811 -1.89303 
2007 2 -3.96457 -3.3045 -1.63571 
71 1 -3.14996 -4.15925 -2.04558 
21 1 -3.4027 -4.43619 -1.0908 
890 1 -2.68006 -4.08821 -1.27066 
907 1 -2.02139 -4.26758 -0.293918 
1394 2 -1.4084 -4.47832 -1.97544 
1783 2 -0.628058 -4.27679 -1.66261 
875 1 -2.21687 -3.54098 -1.7144 
324 1 -1.83693 -3.81433 -0.949567 
526 1 -0.914913 -3.70537 -0.622345 
1613 2 -0.0517213 -3.75298 -2.13751 
1985 2 0.170537 -4.42869 -0.617564 
1748 2 0.183908 -4.04224 -1.39911 
569 1 1.72845 -4.21341 -2.04998 
1973 2 1.87665 -3.10074 -1.34063 
1658 2 0.99823 -3.61183 -1.48612 
661 1 2.54629 -4.10365 -1.79797 
328 1 3.10454 -4.00488 -1.12177 
1066 2 2.70896 -3.16165 -0.962429 
321 1 4.25428 -3.3321 -1.83917 
522 1 3.94551 -3.83499 -1.06801 
1737 2 4.4438 -4.35342 -2.06756 
1844 2 5.2964 -4.10422 -1.8627 
602 1 4.758 -3.49373 -1.08892 
968 1 -5.6849 -2.76054 -1.71154 
532 1 -4.88823 -2.53854 -1.43686 
58 1 -5.07994 -2.90534 -0.711017 
734 1 -4.06454 -2.28429 -1.46331 
291 1 -4.21853 -2.64849 -0.68736 
1478 2 -3.2788 -3.06005 -1.69135 
1911 2 -2.64187 -2.49877 -1.58947 
1993 2 -3.1473 -3.2309 -0.796452 
1077 2 -2.29945 -2.90126 -0.898934 
986 1 -1.05189 -3.42019 -1.46846 
1781 2 -0.705897 -1.87507 -1.67128 
1574 2 -1.3413 -2.53804 -1.14369 
388 1 0.0691361 -2.57068 -2.27323 
998 1 0.795463 -2.45438 -1.63015 
11 1 -0.244755 -3.06951 -1.43493 
1289 2 -0.554479 -2.17708 -0.903479 
566 1 1.4703 -2.47012 -0.714053 
106 1 1.73127 -2.03333 -1.42281 
347 1 0.595639 -2.86797 -0.854235 
626 1 2.44406 -2.10436 -1.05067 
1708 2 3.23236 -2.77884 -1.60306 
629 1 2.82279 -2.18905 -0.359802 
1167 2 3.99528 -2.43837 -1.26673 
1996 2 4.54251 -2.6303 -0.621593 
213 1 5.83997 -3.07381 -1.03523 
1492 2 5.48212 -2.23627 -0.799594 
1978 2 -4.49776 -1.07723 -1.80544 
1940 2 -5.41461 -1.73395 -0.959881 
1352 2 -4.58384 -1.41881 -1.04254 
1393 2 -5.37844 -1.25499 -2.11586 
1826 2 -3.76771 -0.540269 -1.73 
1028 2 -3.7224 -0.867025 -1.03137 
1972 2 -2.86891 -0.434777 -1.68368 
767 1 -3.41465 -1.78502 -1.37273 
548 1 -2.4753 -1.31675 -1.58795 
419 1 -0.975694 -1.2491 -0.523185 
963 1 -1.58702 -1.35356 -1.29193 
252 1 -1.86135 -1.72146 -0.569196 
1635 2 -0.0433232 -1.64612 -1.89551 
1086 2 0.266992 -1.79754 -0.873348 
1682 2 0.724137 -1.30398 -1.53746 
630 1 -0.845928 -0.925759 -1.38929 
2046 2 1.35944 -0.931696 -2.21059 
1659 2 1.33916 -1.3178 -0.719541 
1819 2 1.75745 -0.957074 -1.44145 
1505 2 2.46127 -0.606789 -1.99903 
846 1 3.75125 -1.60635 -0.805327 
1916 2 2.83967 -0.851387 -1.08895 
518 1 4.36698 -1.3053 -1.23217 
279 1 4.8621 -0.87742 -1.67233 
1286 2 5.7935 -1.7418 -1.61936 
1148 2 4.91429 -2.16243 -1.36816 
958 1 5.27077 -0.97046 -0.955334 
654 1 5.46001 -0.493048 -2.04062 
737 1 -5.85073 -0.877989 -0.512618 
489 1 -4.95498 0.053017 -1.76355 
818 1 -4.20779 0.377505 -2.07436 
472 1 -4.31981 0.0970285 -1.05927 
259 1 -3.27751 0.264875 -0.673156 
921 1 -3.47053 0.52707 -1.52653 
1432 2 -2.14813 -0.0136186 -1.67712 
1893 2 -2.1487 -0.42418 -1.05768 
189 1 -2.42414 0.477329 -0.610385 
1589 2 -1.12617 0.156164 -1.65255 
776 1 -0.213556 -0.378615 -1.87771 
1067 2 -0.473405 0.408397 -1.08955 
1386 2 0.493394 0.755344 -0.925855 
502 1 -0.07884 -0.530907 -1.05977 
625 1 0.791144 -0.332746 -0.963551 
874 1 1.72648 -0.110592 -0.949244 
1373 2 1.36321 0.830905 -0.822226 
408 1 2.28639 0.439896 -1.74388 
870 1 2.65081 0.218719 -0.986113 
1858 2 3.28911 -0.35377 -1.71708 
1059 2 4.466 0.00247984 -1.8196 
1897 2 3.63808 -0.52859 -0.964905 
692 1 -5.69431 -0.548612 -1.37297 
1564 2 5.23139 0.266323 -1.43855 
1508 2 4.32997 -0.144038 -0.97301 
446 1 -5.46577 2.12347 -1.48151 
2038 2 -5.32263 0.848859 -1.38669 
1229 2 -4.59391 1.29531 -1.50772 
1003 1 -5.72507 1.67804 -0.623648 
1720 2 -4.20343 1.08141 -0.74949 
2047 2 -3.58488 1.51561 -1.26345 
1981 2 -1.95001 1.92864 -0.698455 
115 1 -2.59007 0.822981 -1.48481 
1727 2 -2.70696 1.65246 -0.824047 
585 1 -1.74433 0.961052 -1.18125 
134 1 -0.990393 1.15724 -0.750632 
240 1 -0.783707 1.69894 -1.63828 
1187 2 0.415266 1.00138 -1.77639 
823 1 0.15426 2.02614 -1.70126 
614 1 -0.204353 1.67622 -0.913252 
1681 2 1.25445 1.20133 -1.63233 
1297 2 2.23267 1.4077 -1.32 
50 1 3.24828 0.797018 -1.7073 
1134 2 3.05813 1.6448 -0.991527 
1340 2 3.88829 1.60711 -0.111619 
194 1 4.94082 1.32279 -1.02349 
783 1 4.1385 0.962904 -1.31497 
95 1 5.52768 1.20503 -0.376912 
761 1 5.67531 1.6609 -1.32079 
1000 1 -4.86573 2.0652 -1.0397 
966 1 -4.7465 2.55464 -1.81114 
1330 2 -5.75904 3.1426 -1.7187 
294 1 -3.60111 2.9575 -1.64947 
739 1 -4.02794 2.40534 -0.947042 
1679 2 -2.76416 2.06765 -1.65712 
16 1 -2.98353 3.00765 -1.16877 
567 1 -3.14523 2.53672 -0.377789 
1304 2 -1.8954 2.35546 -1.53812 
1983 2 -1.06452 2.71465 -1.38528 
2023 2 -1.25283 2.22976 -0.621905 
1616 2 -0.243052 2.99306 -1.56121 
1974 2 0.470105 2.98799 -1.087 
608 1 0.725432 1.70672 -0.871347 
44 1 1.04567 2.26084 -1.54926 
114 1 1.44365 1.98529 -0.596469 
843 1 1.77694 2.39155 -1.16881 
1099 2 1.45399 3.10171 -0.483059 
1838 2 3.36547 2.03125 -1.77151 
183 1 2.47408 2.58546 -0.709362 
945 1 2.66277 2.79862 -1.4511 
510 1 3.43942 3.07513 -1.1438 
1368 2 3.90194 1.9786 -0.930068 
379 1 4.43748 3.15772 -0.729807 
582 1 3.22835 3.22094 -2.072 
1866 2 4.97295 2.49446 -1.04681 
1811 2 5.70541 2.68883 -0.908417 
1554 2 -5.27301 3.61646 -2.24814 
993 1 5.85167 4.22263 -1.42188 
506 1 -4.77761 4.70825 -1.18812 
13 1 -5.21647 4.09729 -0.921735 
1757 2 -3.73464 4.26739 -1.96209 
1056 2 -4.66223 3.52462 -1.44865 
1335 2 -3.89133 3.8117 -1.18742 
1814 2 -3.11536 4.12018 -0.970294 
1287 2 -2.90982 4.45069 -1.78766 
925 1 -2.01806 3.2871 -1.33275 
1992 2 -2.0008 4.6204 -1.41877 
2033 2 -2.27732 4.31342 -0.746816 
733 1 -0.835931 4.25149 -1.91515 
418 1 -1.07856 3.7157 -1.21775 
1406 2 0.900321 3.43854 -1.70652 
224 1 -0.33739 3.7462 -0.720332 
627 1 0.118219 4.17263 -1.58775 
905 1 0.855512 4.44477 -1.23175 
985 1 0.444489 4.04569 -0.591812 
1997 2 1.51096 3.53728 -1.19455 
652 1 1.63133 4.4486 -0.79256 
1913 2 2.28427 3.79516 -1.40269 
1161 2 3.14738 4.12834 -1.3798 
1610 2 2.43946 3.60827 -0.633572 
1234 2 3.53812 4.67989 -2.03057 
1178 2 3.97432 4.37341 -1.12938 
1842 2 3.61033 3.8319 -0.540564 
690 1 4.00151 3.33007 -1.56946 
258 1 5.19334 3.6537 -1.0437 
1730 2 4.75444 4.77641 -0.880897 