ITEM: TIMESTEP
33600
ITEM: NUMBER OF ATOMS
2048
ITEM: BOX BOUNDS pp pp pp
-5.9396047924581206e+00 5.9396047924581206e+00
-5.9396047924581206e+00 5.9396047924581206e+00
-5.9396047924581206e+00 5.9396047924581206e+00
ITEM: ATOMS id type x y z 
1390 2 -4.88017 -4.62572 -4.70278 
1849 2 -5.49411 -4.87949 -5.12772 
342 1 -5.03886 -5.60242 -5.83635 
333 1 -4.47719 -5.66328 -5.14697 
508 1 -3.78751 -5.1848 -5.83139 
5 1 -2.96895 -5.11323 -5.17314 
902 1 -1.98583 -4.72119 -4.73994 
1301 2 -2.73541 5.89332 -5.45518 
1329 2 -2.14646 5.86037 -4.75502 
1551 2 -1.20331 -5.80942 -4.50923 
1029 2 -0.902251 -5.16828 -5.89237 
1151 2 -1.524 -5.70904 -5.33478 
1571 2 -0.0631967 -4.74781 5.84622 
428 1 0.117117 -5.72668 5.61922 
1013 1 0.723765 -5.86179 -5.27105 
1338 2 -0.335698 -5.31904 -5.15996 
673 1 1.00497 -5.40698 -5.93724 
959 1 1.35516 -5.93701 -4.54396 
1563 2 0.444695 -4.89069 -4.97637 
575 1 1.66204 -5.49948 -5.40204 
707 1 2.47447 -5.3478 -5.20223 
425 1 2.06513 -5.0399 5.70597 
481 1 3.47974 -4.76354 -5.0562 
1901 2 3.22364 5.75205 -5.27459 
1090 2 3.91541 -5.76056 -5.25714 
1799 2 3.60823 -5.74406 5.77356 
1239 2 4.31715 -5.33376 5.88178 
2003 2 5.55648 -5.11223 -5.46096 
1307 2 5.8701 -5.24341 -4.53882 
1714 2 4.749 -5.42487 -5.15634 
809 1 -5.56845 -3.92616 -4.50034 
622 1 5.61008 -3.85704 -5.13014 
1249 2 -4.124 -4.5029 -5.16128 
1467 2 -3.75379 -3.83744 -5.93335 
1559 2 -3.07519 -3.85468 -5.26144 
1472 2 -2.76725 -3.27577 -5.92663 
1581 2 -2.22712 -3.73532 -4.93686 
855 1 -1.61746 -4.4384 -5.56572 
1 1 -0.413202 -4.14719 -5.22349 
1495 2 -1.4828 -3.14837 -5.14312 
1486 2 0.679 -4.5246 -5.76044 
819 1 0.258019 -3.57688 -5.37936 
202 1 -0.913996 -3.75271 -5.87211 
1542 2 1.58108 -4.12283 -5.83648 
1984 2 1.24838 -4.59542 -5.07572 
1236 2 2.2403 -4.18841 -5.24869 
1081 2 2.05004 -4.6307 -4.61521 
1260 2 3.08328 -3.89414 -5.50171 
1198 2 2.93388 -4.02587 -4.61151 
1341 2 3.86329 -3.61695 -4.79342 
223 1 2.89236 -4.9586 -5.71739 
511 1 4.247 -4.56623 -4.41489 
675 1 4.15333 -4.40882 -5.58929 
1528 2 3.67664 -3.37718 -5.4955 
684 1 4.87302 -4.50844 -5.02646 
1995 2 4.75828 -3.38418 -4.52308 
1745 2 5.89722 -2.76101 -5.50457 
1491 2 -5.40299 -2.71372 -4.79673 
353 1 -5.38315 -3.61721 -5.44451 
196 1 -4.642 -3.48305 -5.08764 
218 1 -3.91067 -2.92358 -5.18817 
2009 2 -1.98701 -3.30947 -5.91648 
967 1 -2.33729 -2.38735 -5.3948 
965 1 -2.9909 -2.89993 -4.95409 
1820 2 -1.13103 -2.53359 -5.92783 
595 1 -2.30054 -2.59157 -4.57998 
35 1 -0.80826 -1.88225 -4.66076 
1112 2 -1.55929 -2.57037 5.09332 
1555 2 -0.7484 -2.84717 -5.3817 
1326 2 0.0614816 -2.43983 -5.50151 
547 1 1.03865 -3.48955 -5.1297 
1250 2 0.467175 -2.64539 -4.76065 
1923 2 1.19783 -2.32993 -4.87458 
136 1 1.83812 -3.24137 -5.09481 
939 1 2.00005 -2.83936 -5.95473 
639 1 2.80889 -2.65082 -5.61553 
904 1 3.64224 -2.42817 -4.8913 
277 1 4.50865 -2.03611 -4.99976 
706 1 3.88988 -2.08652 -5.86015 
1705 2 5.39666 -2.94182 -4.7424 
1089 2 4.56921 -3.10648 -5.28068 
562 1 -5.10023 -1.043 -5.63914 
403 1 -5.56271 -1.56636 -4.95457 
771 1 -4.42976 -0.784485 -5.19978 
1465 2 -4.48812 -2.23662 -4.9919 
1588 2 -3.60827 -1.61327 -5.16383 
701 1 -4.24667 -0.443127 -5.90371 
1475 2 -5.02451 -2.10676 -5.63427 
1975 2 -2.68599 -1.52587 -4.79446 
1713 2 -2.88661 -1.1946 -5.49982 
2032 2 -2.10426 -1.49243 -4.1153 
773 1 -2.1062 -1.82034 5.70548 
8 1 -1.42957 -1.7504 -5.43027 
1414 2 -1.83571 -1.03986 -4.89283 
1870 2 -1.0068 -0.659925 -4.85549 
367 1 -0.62961 -1.34272 -5.72931 
674 1 0.528306 -1.15812 -5.62507 
657 1 -0.166371 -1.48818 -5.04511 
916 1 1.27168 -0.784189 -5.53782 
1698 2 0.772463 -2.13933 -5.74848 
421 1 1.785 -1.12094 -4.54743 
1982 2 2.88584 -1.65888 -4.7034 
1259 2 2.12221 -2.06328 -4.74973 
1615 2 3.37946 -1.14935 -5.57576 
1083 2 4.26548 -1.11768 -5.36959 
1332 2 4.66596 -0.425907 -5.77361 
33 1 4.87516 -1.68265 -5.86437 
999 1 5.73191 -1.49775 -5.39217 
385 1 5.32209 -1.95872 -4.69805 
1118 2 5.25468 -0.639043 -5.12769 
2036 2 -5.0233 0.0194356 -5.25629 
609 1 -4.49928 -0.100264 5.03983 
1346 2 -4.38097 0.538207 -5.67143 
212 1 -3.6367 -0.573301 -4.96216 
505 1 -2.98236 -0.258022 -5.18692 
374 1 -2.09403 0.291581 -5.46736 
1809 2 -1.14594 -0.469622 -5.69489 
254 1 -1.2185 0.268772 -4.89149 
1631 2 0.531279 0.186562 5.88777 
1570 2 -0.044116 -0.335161 -5.30353 
1785 2 0.925094 0.0245357 -5.01864 
1314 2 2.33275 0.813508 -5.75673 
404 1 1.856 -0.348458 5.69708 
872 1 2.2976 -0.558395 -5.45743 
2008 2 1.73394 0.443747 -4.92622 
302 1 4.13618 0.142969 -5.24486 
908 1 3.12416 -0.204466 -5.05182 
563 1 4.16763 0.686833 5.67817 
1939 2 -5.8123 -0.328521 -5.35957 
360 1 -4.50839 1.4674 -4.95087 
469 1 5.84577 0.693364 -4.88375 
1111 2 -4.02579 0.366323 -4.74821 
689 1 -3.76883 2.00769 -5.15853 
1736 2 -3.64933 0.888544 -5.39239 
1498 2 -2.65536 1.06307 -5.01083 
1433 2 -3.18443 1.3963 -5.76843 
1256 2 -1.4829 1.26581 -4.71549 
1797 2 -1.90757 1.47414 -5.52038 
244 1 -0.386945 0.768757 -5.29325 
380 1 0.368028 1.23576 -5.60206 
451 1 -0.107925 0.477454 -4.58875 
551 1 1.78281 1.46746 -4.53003 
534 1 1.23328 1.54514 -5.30503 
570 1 2.24379 1.67205 -5.14748 
1226 2 3.61511 1.00944 -5.10048 
1572 2 4.57078 1.44266 -5.1123 
1132 2 4.03375 1.57073 -5.84443 
138 1 4.92968 0.613777 -5.56661 
1953 2 5.31235 1.93187 -5.40646 
1470 2 5.56033 1.71522 -4.52167 
1204 2 -5.15079 2.60912 -5.45533 
1877 2 -5.34099 2.74465 5.39889 
1861 2 -4.26444 2.85212 -4.85324 
1800 2 -3.33018 3.03688 -4.71072 
1620 2 -4.52259 3.07342 -5.76054 
190 1 -3.11366 2.47734 -5.54521 
752 1 -3.00569 2.04122 -4.78291 
493 1 -2.53281 2.65612 5.82893 
1938 2 -2.89207 3.41208 -5.29303 
815 1 -2.22859 2.35091 -5.21582 
950 1 -1.53102 2.72836 -5.46541 
709 1 -1.10477 2.52983 -4.532 
1058 2 -0.555625 1.64094 -4.82554 
1506 2 0.378613 1.87942 -4.33499 
491 1 -0.337479 2.8921 -4.85109 
852 1 -0.662901 3.20522 -5.6154 
1979 2 0.584919 2.63735 5.91014 
1085 2 1.83151 2.64609 -4.71038 
1054 2 1.02394 2.41872 -4.87639 
1322 2 1.49932 2.76451 -5.57575 
869 1 3.85183 2.37323 -5.29492 
1653 2 2.31014 2.9485 -5.24556 
118 1 2.87137 2.11397 -5.61497 
96 1 4.37505 2.41778 -4.75053 
762 1 4.70626 2.86729 -5.6584 
796 1 3.8824 2.81601 5.87162 
178 1 5.29477 2.80658 -4.81299 
1717 2 -5.62473 2.11514 -4.88766 
396 1 -5.79892 3.20842 -4.56702 
755 1 -5.47246 3.6653 -5.34384 
926 1 -4.9253 4.04978 5.85464 
676 1 -4.58346 4.12223 -5.14591 
369 1 -3.66775 4.105 -4.70477 
69 1 -3.86273 4.29485 -5.56883 
923 1 -3.06618 4.43418 -5.16356 
1482 2 -3.10786 3.57959 5.75844 
1772 2 -2.22343 3.88401 -5.81136 
1476 2 -1.43288 4.05072 -5.37065 
1142 2 -1.46698 3.50016 -4.48769 
1044 2 -0.853442 4.45952 5.79207 
1336 2 -0.644297 4.17073 -5.16117 
1593 2 0.218713 4.37387 -4.94419 
56 1 0.5027 3.25201 -5.11975 
501 1 1.66348 4.19038 -5.78502 
394 1 1.35537 3.68837 -5.19633 
653 1 2.28969 4.02967 -4.96456 
432 1 3.20163 4.34341 -4.68945 
1274 2 2.78969 3.38354 -5.81549 
1562 2 4.23479 3.80069 -5.20641 
1779 2 4.98584 4.04859 -5.10762 
1088 2 -5.90015 4.53966 -5.08304 
1618 2 5.35579 4.49531 -5.85662 
1073 2 -5.34415 4.87952 -5.7012 
1207 2 -5.15336 4.61439 -4.40327 
14 1 -4.34559 5.88207 -4.20647 
412 1 -5.58977 5.83624 -5.24906 
1311 2 -4.71468 5.04757 -5.02292 
1606 2 -4.5146 5.34442 -5.90772 
2029 2 -3.5792 5.67815 5.76946 
1989 2 -3.70791 5.41669 -5.3646 
146 1 -2.39656 5.1554 5.77968 
1526 2 -2.98251 5.53582 -4.78527 
797 1 -0.794973 5.50183 -5.56383 
123 1 -1.52548 5.06033 -4.8709 
577 1 -2.27301 4.87284 -5.25621 
1692 2 0.730856 4.93008 -5.66869 
340 1 -0.0124659 5.66616 -5.57981 
1756 2 1.10109 4.81769 -4.90283 
1145 2 1.95479 5.10347 -5.13552 
1955 2 0.56718 5.18514 5.45901 
1354 2 1.52145 5.42381 -5.81734 
1002 1 2.60061 4.55711 -5.806 
1093 2 2.56209 5.61289 -5.72683 
473 1 3.49625 4.83434 -5.57757 
1764 2 2.7149 5.28786 -4.68001 
437 1 3.96634 4.72197 -4.76512 
1847 2 3.62392 5.58428 -4.4868 
166 1 5.24491 5.54007 -5.64194 
835 1 4.84004 4.84971 -4.57813 
514 1 5.53364 5.37831 -4.77172 
440 1 4.61955 5.18989 -5.17469 
1227 2 -5.26171 -5.14522 -3.97115 
1931 2 -4.22441 -4.83507 -4.19172 
346 1 -3.70853 -5.51193 -4.77432 
2000 2 -3.53339 -4.63957 -3.96098 
1411 2 -3.4805 -4.29573 -4.81744 
467 1 -2.60545 -5.07241 -4.33273 
274 1 -3.24721 -5.67589 -4.00631 
147 1 -2.44485 -5.44659 -3.39983 
497 1 -1.64614 -4.98059 -4.05162 
107 1 -1.00865 -4.51446 -4.86793 
1353 2 -1.24119 5.54011 -3.62172 
1503 2 -0.32652 -5.62501 -4.34082 
1344 2 0.586414 -5.26547 -4.15241 
1828 2 1.46377 -4.93396 -4.21734 
43 1 2.24974 -5.80261 -4.30668 
931 1 3.06053 -5.30058 -4.48 
487 1 2.79882 -5.76752 -3.65319 
64 1 3.50113 -5.60631 -3.25031 
180 1 3.71 -5.1018 -3.99445 
131 1 4.33794 -5.31922 -3.18432 
242 1 4.72671 -4.86282 -3.8708 
2034 2 5.1988 -5.67128 -4.39379 
373 1 -4.68973 -3.71015 -4.11628 
339 1 -5.37069 -4.26594 -3.61208 
465 1 -3.84303 -3.47652 -4.20595 
441 1 -3.79372 -3.73088 -3.4413 
1617 2 -2.72763 -4.09323 -4.23418 
1602 2 -1.88985 -4.18265 -3.44521 
1197 2 -1.88451 -3.80579 -4.23738 
1711 2 -1.02904 -3.70655 -3.75788 
1848 2 -0.172049 -3.30542 -3.86498 
416 1 -0.0339258 -4.45285 -3.48442 
227 1 -0.806935 -4.61308 -4.12729 
20 1 0.0415571 -4.27878 -4.25886 
249 1 0.890336 -4.0376 -3.69803 
569 1 0.594176 -3.74193 -4.49006 
1019 1 1.71396 -3.93162 -3.51143 
2004 2 2.23227 -4.78035 -3.76579 
1001 1 2.37282 -3.42254 -3.75621 
1887 2 4.47933 -3.78237 -3.68354 
2019 2 2.92926 -4.40272 -3.92531 
1657 2 3.64864 -3.94063 -3.93963 
280 1 5.52462 -4.40687 -4.29652 
284 1 5.83565 -4.49664 -3.37688 
1937 2 -4.73036 -2.66679 -4.17551 
1483 2 -5.84678 -3.1491 -4.16494 
1296 2 -3.41985 -1.9368 -4.40002 
1902 2 -4.08243 -2.34629 -4.10706 
402 1 -3.08752 -2.98815 -4.16088 
634 1 -3.00046 -3.44813 -3.40901 
150 1 -2.20711 -3.05929 -3.64144 
1515 2 -0.856394 -3.43181 -4.46708 
151 1 -1.56144 -2.29713 -4.53488 
236 1 -0.591423 -2.27918 -3.96257 
1231 2 0.380837 -3.33007 -3.17637 
1894 2 -0.281876 -3.01046 -4.60686 
1533 2 0.629774 -2.81906 -3.98361 
1947 2 1.18101 -3.02108 -3.14656 
1580 2 1.48442 -2.60138 -4.04026 
938 1 1.68613 -3.5521 -4.23564 
1190 2 2.4533 -2.26713 -3.99116 
1263 2 2.03959 -2.64602 -3.16815 
914 1 3.15415 -3.31799 -3.27624 
475 1 3.21701 -3.00923 -4.20473 
485 1 2.53258 -3.05027 -4.89826 
1128 2 3.43156 -1.70395 -3.84456 
754 1 4.04264 -3.03872 -3.06922 
928 1 3.98011 -2.692 -3.961 
1319 2 5.30722 -3.46911 -3.86054 
179 1 4.66176 -2.29242 -4.10927 
1634 2 5.68074 -0.949519 -4.31052 
161 1 -5.74395 -1.98463 -4.12397 
117 1 -4.28546 -1.10082 -4.02704 
592 1 -4.71549 -1.33583 -4.6664 
548 1 -3.41261 -1.29376 -3.35285 
1664 2 -2.68138 -2.09762 -3.77724 
948 1 -2.73118 -0.809966 -3.62691 
1271 2 -1.21475 -1.05813 -4.00092 
1223 2 -0.455634 -1.02522 -3.60078 
1573 2 -1.61991 -1.71585 -3.35864 
599 1 0.231217 -1.71321 -4.26431 
1673 2 0.386996 -0.800757 -3.39724 
287 1 1.03956 -1.59688 -3.77038 
830 1 0.907021 -1.34518 -4.7222 
705 1 1.83588 -1.45258 -3.60773 
427 1 2.63152 -1.03502 -3.58381 
42 1 3.37467 -0.881574 -3.05993 
1257 2 3.737 -1.24173 -4.66806 
1299 2 4.31011 -1.33996 -3.8813 
2014 2 4.8343 -1.09787 -4.59623 
1775 2 5.24621 -1.13124 -3.51022 
866 1 5.87677 0.347961 -3.99282 
1030 2 -5.11879 -0.450492 -3.44197 
1163 2 -5.74686 -0.941862 -3.53611 
397 1 -5.24479 0.940479 -4.02089 
1110 2 -4.85533 0.156741 -4.52231 
1792 2 -4.45251 -0.207385 -3.83417 
2048 2 -3.69655 0.00911449 -3.90946 
833 1 -3.48831 -0.910549 -4.23973 
214 1 -2.73583 -0.503874 -4.32695 
1754 2 -2.92246 0.380661 -3.78117 
717 1 -1.96023 -0.415337 -3.73928 
848 1 -2.15659 -0.0130534 -4.76193 
704 1 -1.44349 0.00100004 -4.06492 
1500 2 -0.128251 -0.611869 -4.43518 
80 1 0.531888 0.522275 -3.77386 
594 1 -0.661387 0.259475 -4.06247 
1644 2 0.720833 -0.417995 -4.2278 
2041 2 1.65762 -0.131391 -4.23511 
125 1 2.59555 -0.746031 -4.43999 
1952 2 2.4211 0.398285 -4.06716 
195 1 5.00551 0.146172 -4.56201 
900 1 4.15168 -0.172298 -4.42555 
1529 2 3.37822 0.616971 -3.9778 
1725 2 -5.43348 -0.492783 -4.50614 
241 1 4.31654 -0.263898 -3.5525 
715 1 5.14922 -0.0462729 -3.60148 
912 1 4.98507 -0.307765 -2.88019 
230 1 -5.2966 1.16499 -4.96049 
1361 2 -4.9341 1.74203 -3.1068 
818 1 -5.10078 0.476775 -3.2394 
94 1 -4.28883 1.20894 -4.21769 
164 1 -4.30643 0.76489 -3.31207 
1343 2 -3.21072 0.568232 -4.5834 
697 1 -3.50007 1.55361 -4.27275 
824 1 -2.59953 1.79724 -3.89813 
1876 2 -2.17401 0.968617 -4.34019 
2001 2 -2.08909 0.517055 -3.46632 
1830 2 -2.46867 0.14422 -2.82676 
1999 2 -1.33534 1.12439 -3.66323 
1962 2 -0.0116314 1.38576 -3.50541 
827 1 0.731367 0.973752 -4.64734 
1884 2 0.689129 1.7856 -3.57781 
401 1 1.34164 0.980075 -3.93113 
1502 2 2.78373 0.678855 -4.82462 
382 1 3.2425 2.03279 -4.75191 
895 1 2.50907 1.73381 -4.2696 
842 1 2.21845 1.19198 -3.5704 
1210 2 4.1845 0.919111 -4.48724 
2027 2 4.31839 0.849425 -3.65453 
1696 2 5.02117 1.08825 -4.12052 
1777 2 -5.50077 1.99444 -3.87207 
1320 2 5.68591 1.35335 -3.62351 
1403 2 -4.88852 2.48978 -4.5226 
631 1 -5.2941 3.1636 -3.78011 
731 1 -4.50684 3.2682 -3.51218 
1068 2 -4.50972 2.2501 -3.8102 
1512 2 -3.59456 2.65446 -3.99611 
1092 2 -3.73012 2.30325 -3.08873 
1794 2 -2.61724 3.01587 -4.44295 
1015 1 -1.92314 2.13658 -4.53561 
982 1 -0.757245 2.4244 -3.65482 
719 1 -1.59569 2.16467 -3.73599 
885 1 0.707836 3.19759 -4.16784 
1298 2 -0.617974 1.35922 -3.96958 
552 1 0.0155819 2.72871 -4.09182 
448 1 1.08073 3.15292 -3.37254 
1967 2 1.48587 2.36002 -3.95745 
1461 2 2.81515 3.04532 -4.6555 
1158 2 2.50241 2.64364 -3.87634 
1214 2 3.42458 3.32075 -5.17406 
447 1 3.94843 1.98598 -4.1709 
1769 2 3.46428 2.84091 -3.6859 
1105 2 4.12071 2.98903 -3.32214 
574 1 4.33978 1.87302 -3.49127 
188 1 4.86565 2.26726 -4.0108 
7 1 5.57419 2.7527 -3.84183 
726 1 5.25376 2.07047 -2.93465 
882 1 -4.87053 3.58397 -4.40559 
1977 2 -5.6667 4.13787 -3.93536 
1349 2 5.54216 4.07458 -4.31805 
298 1 -4.07536 3.58011 -4.15881 
1278 2 -4.6061 4.49521 -3.63577 
204 1 -3.39171 3.56271 -3.36706 
221 1 -2.67544 4.28126 -4.44563 
45 1 -3.25416 3.91897 -4.01873 
111 1 -2.55345 4.14976 -3.60169 
1959 2 -2.20661 3.49931 -5.00596 
323 1 -1.88438 4.49475 -4.34504 
1668 2 -1.23155 3.38865 -3.61895 
1378 2 -0.658011 3.78454 -4.44425 
1625 2 -0.27682 3.57854 -3.4816 
1267 2 0.131582 4.03961 -4.07768 
896 1 1.56977 3.50363 -4.22697 
1869 2 1.00872 4.24395 -3.28438 
262 1 2.4077 4.00844 -4.18021 
143 1 3.03726 3.71701 -3.51064 
34 1 2.79535 3.21806 -2.69868 
2020 2 3.9026 3.21689 -4.32144 
370 1 3.56122 4.12702 -3.98633 
650 1 3.89175 4.024 -3.27885 
2039 2 4.70802 3.71363 -4.41492 
1072 2 4.80848 3.4262 -3.62201 
946 1 4.39761 4.50379 -3.95607 
662 1 -4.88427 5.35089 -3.52606 
699 1 -5.25639 5.71113 -4.42607 
961 1 -5.83494 5.33317 -4.04548 
1365 2 -3.95115 4.95727 -4.45558 
825 1 -3.61749 5.8093 -3.31831 
1527 2 -3.58202 4.75067 -3.67953 
1138 2 -2.88129 5.19203 -4.10869 
276 1 -0.574371 5.11575 -4.71403 
1510 2 -2.16585 5.57876 -3.78369 
836 1 0.303051 5.36292 -4.70793 
41 1 -0.0134882 5.04357 -3.78847 
638 1 0.922092 5.58831 -3.81531 
2040 2 0.863549 4.33002 -4.15294 
165 1 0.912041 5.2634 -2.99098 
1607 2 1.506 4.81297 -4.32115 
1926 2 3.42958 5.23228 -3.75333 
736 1 1.71237 5.91461 -3.4978 
1875 2 4.24902 5.47467 -3.65928 
1846 2 4.46926 -5.94307 -4.35184 
181 1 5.22675 4.90798 -3.82004 
443 1 4.6491 4.33123 -3.05428 
1699 2 5.10909 5.86976 -3.34093 
1203 2 -4.64785 -5.24157 -3.44247 
798 1 5.99119 -5.02728 -2.19702 
251 1 -4.6273 -4.60428 -2.07363 
1192 2 5.92813 -5.56001 -3.51105 
1534 2 -3.98745 -4.91589 -3.32675 
1548 2 -4.4238 -5.48694 -2.51885 
1046 2 -3.39103 -5.0023 -2.81646 
1394 2 -2.67677 -4.68429 -2.41687 
974 1 -2.2557 -5.76765 -2.49754 
260 1 -0.732744 -4.95565 -3.25366 
1014 1 -1.46659 -5.32999 -3.20449 
229 1 -1.44691 -5.48567 -2.17731 
1747 2 0.560075 -5.43068 -3.24054 
305 1 0.209752 -4.71979 -2.54457 
1915 2 1.40286 -5.0602 -3.37229 
954 1 1.74339 -4.26934 -2.40046 
1957 2 0.95934 -5.58379 -2.54885 
1749 2 1.85545 -5.36003 -2.45237 
2017 2 2.5108 -5.06493 -2.97052 
1530 2 2.86235 -5.06182 -2.25078 
19 1 4.14447 -5.47541 -2.37001 
955 1 5.02865 -5.31832 -2.38151 
878 1 5.28666 -4.86837 -3.03043 
75 1 -4.72525 -4.10757 -3.17883 
1817 2 -5.21929 -2.98861 -3.20056 
273 1 -5.48077 -4.49362 -2.78231 
71 1 -4.05621 -4.16716 -2.58122 
753 1 -3.20104 -3.86156 -2.65028 
890 1 -3.40093 -4.1734 -1.75711 
1425 2 -2.77196 -4.60991 -3.34411 
816 1 -2.40452 -3.33772 -2.74604 
1991 2 -1.90191 -4.40337 -2.63622 
398 1 -2.24124 -3.54878 -2.05754 
1079 2 -2.04536 -4.72804 -1.80638 
1881 2 -1.17636 -4.09918 -2.88452 
1613 2 -1.22708 -4.44638 -1.80655 
1896 2 -0.246372 -3.68579 -2.87321 
1748 2 0.292815 -3.74052 -2.19753 
1535 2 -0.591599 -3.96917 -2.14508 
934 1 0.968311 -4.32332 -2.80303 
661 1 2.42964 -3.89611 -2.84975 
1592 2 3.27958 -4.47293 -3.13978 
981 1 3.23735 -3.58996 -2.45491 
1232 2 4.09262 -4.1902 -3.02049 
100 1 3.31897 -3.76454 -1.69982 
352 1 4.04382 -3.43578 -2.19953 
1750 2 5.06311 -3.81964 -3.01891 
1655 2 -5.52733 -3.67975 -2.15493 
1851 2 5.91539 -3.33839 -3.09402 
2007 2 -4.82325 -3.28635 -2.59352 
784 1 5.39184 -2.26631 -3.71514 
140 1 -4.82314 -1.92232 -2.86587 
1545 2 -4.31901 -2.82995 -3.19272 
1442 2 -3.93021 -2.92994 -2.58967 
1478 2 -3.4866 -2.37816 -3.48032 
1097 2 -2.24212 -2.18421 -2.99815 
1911 2 -3.22738 -2.51161 -2.68325 
677 1 0.129616 -2.02191 -3.59934 
411 1 -1.38136 -2.70993 -3.75189 
388 1 -1.40018 -3.24366 -2.10462 
875 1 -1.45514 -3.05091 -2.99933 
313 1 -0.606348 -2.70827 -3.29853 
844 1 0.0288793 -2.44177 -2.65892 
106 1 0.393096 -2.62118 -2.057 
1658 2 1.04759 -3.73414 -1.53769 
1457 2 1.13403 -3.41236 -2.28357 
1738 2 2.99965 -2.15322 -3.28691 
1787 2 1.97646 -3.02264 -2.29488 
1645 2 2.74884 -2.63962 -2.3187 
1641 2 3.61893 -2.28295 -2.60997 
1148 2 3.95763 -1.77102 -3.07695 
311 1 4.84582 -2.8618 -2.44726 
550 1 4.79226 -2.61188 -3.13152 
471 1 5.73761 -2.4561 -2.78089 
968 1 5.64769 -2.90194 -1.96338 
205 1 -4.97151 -1.73507 -3.6852 
2035 2 5.82019 -0.974544 -2.76657 
1279 2 -5.36164 -1.24525 -2.26547 
1940 2 -5.78904 -1.62943 -1.55681 
917 1 -4.16629 -1.47342 -3.27419 
344 1 -3.70264 -1.63213 -2.49633 
37 1 -2.86715 -1.34481 -2.70685 
499 1 -1.87196 -0.891827 -2.87752 
1867 2 -1.81039 -2.17591 -2.28722 
1456 2 -0.777499 -1.63701 -3.08772 
615 1 -1.19078 -0.692918 -2.60419 
1345 2 0.0200274 -1.39251 -2.69993 
1804 2 0.91797 -0.94756 -2.59687 
1635 2 -0.389852 -1.75051 -1.92955 
691 1 1.70359 -1.73489 -2.82293 
597 1 0.858579 -1.99455 -3.01394 
2046 2 1.70541 -0.606953 -2.55664 
377 1 1.18606 -2.08092 -2.17694 
640 1 2.5457 -1.3892 -2.66119 
867 1 2.20578 -1.79117 -1.96385 
116 1 3.33432 -1.1749 -2.27662 
700 1 3.39115 -0.469575 -3.78724 
518 1 4.01737 -1.17079 -1.803 
1237 2 5.51235 -1.58652 -2.27942 
1286 2 4.84204 -1.61827 -2.83704 
1492 2 4.35577 -2.12326 -2.12718 
297 1 4.11372 -0.748089 -2.70119 
278 1 5.8302 0.143107 -2.89169 
654 1 -4.94375 -0.318217 -1.36129 
708 1 -5.22951 0.191957 -2.31893 
958 1 -5.73596 -0.295364 -1.97077 
1350 2 -4.8841 -0.831036 -2.78278 
1310 2 -3.48479 -0.406823 -2.10991 
1184 2 -4.10326 -0.425428 -2.85448 
1104 2 -3.2945 -0.170446 -2.97176 
1025 2 -2.615 -0.354558 -2.17103 
1432 2 -1.87484 0.213341 -2.22861 
789 1 -0.971127 -0.144615 -3.21958 
886 1 -0.301853 -0.347731 -2.51385 
517 1 -0.105983 0.284249 -3.19995 
1021 1 0.799788 0.319974 -2.7938 
121 1 0.595735 -0.0960017 -2.04909 
1057 2 1.2864 -0.58787 -3.54196 
749 1 1.40066 0.349866 -2.18689 
90 1 1.40343 0.484088 -3.23349 
1963 2 2.11537 -0.319861 -3.37226 
1832 2 2.52103 -0.363855 -2.40901 
1505 2 2.99404 0.165555 -3.06359 
1858 2 3.47058 -0.0772265 -2.23166 
1059 2 3.94756 0.453388 -2.90578 
1220 2 4.14387 0.162353 -2.11105 
32 1 4.65407 -0.851145 -2.09989 
1986 2 4.80769 0.696793 -2.34938 
1282 2 -4.20299 1.78937 -2.84839 
1654 2 -5.07049 1.3542 -2.32632 
299 1 -4.42078 0.524243 -2.59863 
686 1 -3.55542 0.867256 -2.57478 
1839 2 -3.44174 1.90071 -2.13428 
1727 2 -2.6774 1.83417 -1.88477 
1803 2 -4.11294 1.4708 -2.07008 
310 1 -3.52126 1.15274 -3.42885 
494 1 -1.83677 1.4441 -2.31965 
921 1 -2.68048 1.27668 -2.89458 
903 1 -1.92649 1.64037 -3.06263 
1643 2 -1.44953 0.633338 -2.78663 
240 1 -1.12974 1.98778 -2.72063 
1550 2 -0.668974 1.11537 -3.05813 
1436 2 -0.239049 0.844195 -2.27399 
1683 2 0.396947 1.32658 -2.60478 
823 1 -0.844551 1.78521 -1.93236 
1642 2 1.8967 2.12493 -3.30236 
1050 2 1.21374 1.85662 -2.86233 
1994 2 1.56319 1.52556 -2.02887 
894 1 3.13171 1.51412 -3.70615 
408 1 1.92059 0.888392 -2.67589 
621 1 2.8353 1.12587 -2.74312 
760 1 3.63441 1.35304 -2.86859 
232 1 4.05782 1.40926 -2.06347 
194 1 3.22315 1.08649 -1.91064 
1172 2 5.06159 0.993808 -3.05588 
1011 1 4.63353 1.79885 -2.49098 
2030 2 -5.71644 1.34092 -2.84713 
1468 2 5.72898 0.972504 -2.30499 
879 1 -4.85722 2.80392 -2.75849 
702 1 -5.79089 2.62451 -2.98442 
811 1 -5.26802 2.27361 -1.98116 
1728 2 -2.80281 2.26618 -2.70134 
568 1 -4.03558 3.24144 -2.83002 
966 1 -4.26234 2.65061 -2.06821 
2021 2 -2.05226 2.48571 -2.22487 
1415 2 -2.83101 2.67956 -3.52979 
1175 2 -1.96062 3.18131 -3.90545 
1247 2 -1.50947 2.99281 -2.8506 
1485 2 -2.20467 3.03217 -3.18615 
593 1 0.35281 2.76186 -3.20045 
301 1 -0.300054 2.26295 -2.93573 
208 1 0.131634 2.16023 -2.13384 
478 1 1.56813 2.61767 -1.74887 
561 1 0.920551 2.72894 -2.43303 
937 1 1.86181 3.1926 -2.75407 
1065 2 2.89912 2.32433 -3.03004 
1825 2 2.23673 2.00012 -2.49171 
775 1 2.32061 2.9183 -1.85402 
1838 2 3.1194 1.86869 -1.18621 
1686 2 3.74104 2.43966 -2.71214 
1522 2 3.06481 2.23659 -2.07514 
1554 2 4.53002 2.81452 -2.08334 
171 1 5.74829 2.17561 -2.17908 
1662 2 5.80577 3.40724 -2.42984 
1786 2 4.92944 3.11116 -2.78522 
1048 2 -5.28396 3.95517 -2.99602 
918 1 -5.63842 4.95796 -3.04619 
1335 2 -5.27889 3.73924 -2.15048 
1971 2 -4.59593 4.12888 -2.52566 
1670 2 5.63903 3.61406 -3.3145 
1413 2 -3.91315 4.41143 -3.03212 
1419 2 -3.88824 4.09527 -2.05207 
751 1 -2.82545 3.79528 -2.74694 
460 1 -3.332 3.0855 -2.28254 
322 1 -2.55135 3.31696 -1.72079 
1127 2 -3.36147 4.61197 -2.43169 
772 1 -1.68131 4.20599 -3.42049 
26 1 -2.01477 3.85387 -2.53498 
418 1 -1.16053 4.13333 -2.43012 
17 1 -1.19448 4.69198 -4.10843 
1183 2 -0.571724 3.26013 -2.65296 
1406 2 0.351546 3.54658 -2.17459 
1042 2 1.84562 4.44599 -3.2363 
1071 2 0.347245 3.84501 -2.97357 
1997 2 1.2711 4.10015 -2.37097 
1499 2 2.11734 4.91716 -3.8717 
906 1 1.98254 3.44546 -3.43424 
641 1 3.55694 3.67471 -2.53979 
1428 2 2.20589 4.24946 -2.42392 
1161 2 2.70915 4.79678 -3.37924 
582 1 4.16893 3.48782 -1.43573 
690 1 4.33038 3.93224 -2.26809 
742 1 5.39184 4.77469 -2.91555 
993 1 5.90222 4.23491 -1.33895 
258 1 5.19155 4.16223 -2.2229 
2016 2 -5.23475 -5.68504 -2.97511 
453 1 -5.01509 5.0394 -2.50843 
355 1 -5.14344 4.58195 -1.6454 
1008 1 -4.2003 5.46495 -2.91932 
589 1 -3.58788 5.53607 -2.14459 
805 1 -3.07808 5.91584 -2.72869 
1417 2 -2.80443 4.94227 -3.13855 
1575 2 -1.92098 5.14774 -2.96168 
1339 2 -2.31884 4.81931 -2.2083 
1038 2 -1.12748 5.47816 -2.76139 
1191 2 -1.40971 5.07965 -2.01248 
1265 2 -0.470017 5.53379 -1.9348 
1818 2 -0.363313 -5.87177 -3.56042 
1928 2 -0.0981487 5.90825 -2.71648 
733 1 -0.734546 4.5468 -3.17297 
871 1 1.68425 5.52799 -2.65349 
612 1 0.0823548 4.95303 -2.81773 
516 1 2.58308 5.60407 -2.94434 
361 1 2.71576 5.65448 -1.994 
667 1 3.441 5.84833 -2.53734 
1854 2 3.78655 5.02732 -3.06441 
1318 2 4.51644 5.41786 -2.67982 
1405 2 3.81821 4.897 -2.10087 
1100 2 5.12886 5.38619 -1.98959 
1362 2 5.77837 5.95604 -2.70797 
1612 2 -5.22258 5.96531 -2.00421 
504 1 -5.23321 -4.98392 -1.59206 
724 1 -5.93616 -5.44853 -0.990463 
524 1 -4.97653 -5.21278 -0.825831 
1126 2 -4.4466 -5.88186 -1.40146 
1047 2 -3.79601 -5.35716 -1.96831 
1272 2 -3.65709 -5.79594 -1.0888 
1285 2 -2.93592 -5.24006 -1.62357 
1454 2 -2.1433 -4.95985 -0.98661 
672 1 -0.73546 -5.51945 -1.611 
203 1 -0.212454 -5.57808 -0.790613 
295 1 0.136091 -5.01821 -1.64374 
459 1 -0.577073 -5.13447 -2.41688 
455 1 1.02982 -4.71731 -1.92121 
304 1 1.12823 -5.0351 -1.09503 
1859 2 3.29528 -5.08954 -1.32662 
1880 2 2.73301 -5.65344 -0.897556 
1611 2 2.29069 -5.51857 -1.60529 
1864 2 3.99028 -5.13736 -0.80601 
847 1 4.39636 -5.68549 -1.51535 
1765 2 3.50502 -4.64199 -2.33722 
1487 2 4.06582 -4.65879 -1.64586 
1129 2 5.26062 -4.42822 -1.76762 
153 1 5.28999 -5.45523 -1.58037 
2010 2 -4.99996 -3.84013 -1.48023 
1449 2 -4.56242 -3.84152 -0.478268 
1836 2 -5.79021 -4.16584 -1.31884 
269 1 -4.19692 -4.41641 -1.48087 
21 1 -3.2243 -4.36635 -0.980903 
1069 2 -3.86264 -3.48188 -1.0239 
1119 2 -4.23388 -3.3731 -1.815 
329 1 -2.61954 -4.23301 -0.432449 
366 1 -2.40045 -3.90291 -1.30548 
526 1 -1.49972 -3.66469 -1.32801 
1985 2 -1.18845 -4.82283 -0.915497 
246 1 -0.832624 -3.55215 -0.99514 
1942 2 0.203277 -3.94512 -1.34906 
1812 2 -0.536301 -4.37965 -1.32551 
986 1 -0.677616 -3.09737 -1.65191 
257 1 1.9521 -4.55675 -1.36426 
1381 2 0.784324 -4.18536 -0.753089 
1973 2 1.40228 -3.741 -0.774654 
286 1 1.99208 -4.90693 -0.599502 
245 1 2.48685 -4.1225 -2.00354 
693 1 2.79877 -4.27798 -1.16876 
1066 2 2.14733 -3.5158 -0.736421 
1770 2 2.90718 -3.09328 -0.55792 
1737 2 4.67689 -4.23095 -2.32432 
328 1 3.5953 -3.98823 -0.878972 
321 1 4.38792 -3.72359 -1.28781 
1871 2 5.52958 -3.91185 -2.37178 
522 1 4.82115 -3.73134 -0.550493 
58 1 5.66067 -3.27564 -0.815556 
532 1 -5.68914 -2.03265 -3.27125 
767 1 -5.53757 -2.86141 -1.36969 
99 1 -5.29758 -2.31351 -2.24593 
636 1 -4.28866 -2.01103 -2.20492 
1993 2 -3.30042 -3.14195 -1.93145 
291 1 -3.74564 -2.12077 -1.44991 
1537 2 -2.7417 -2.45533 -1.92014 
1077 2 -2.74412 -3.13013 -1.05079 
1908 2 -2.10277 -2.5586 -1.52092 
1574 2 -1.22685 -2.31663 -1.31488 
1052 2 -1.7444 -2.833 -0.761627 
11 1 0.115667 -2.74369 -1.37718 
998 1 -0.798537 -2.66452 -2.62206 
1177 2 -0.495125 -2.04087 -1.04392 
347 1 1.00381 -2.51157 -1.51005 
566 1 1.93941 -2.30897 -1.20756 
1878 2 1.75477 -3.2627 -1.46339 
626 1 2.60496 -1.92167 -1.02781 
1708 2 2.62013 -3.1585 -1.37469 
1167 2 3.35045 -2.64779 -1.77228 
602 1 4.85212 -3.19878 -1.62142 
1996 2 5.02444 -2.41607 -0.71177 
1501 2 5.68928 -2.37487 -0.075439 
1978 2 -4.78865 -1.305 -1.44389 
1393 2 5.82057 -2.04676 -0.966609 
1206 2 -4.17828 -0.925195 -1.84668 
1826 2 -3.17558 -0.629611 -1.23654 
1352 2 -3.96665 -1.08228 -0.961168 
234 1 -2.25629 -1.29314 -2.02807 
682 1 -3.15118 -1.44702 -1.80562 
963 1 -2.48223 -1.50807 -1.22596 
1781 2 -1.09222 -1.85322 -2.22086 
630 1 -1.37557 -0.912264 -1.79766 
252 1 -1.64689 -1.35394 -1.09416 
1517 2 0.389851 -1.38694 -1.87716 
776 1 -0.405281 -0.578803 -1.62311 
1568 2 1.22951 -1.17164 -1.76175 
1682 2 0.932252 -1.68547 -0.738514 
1086 2 0.308371 -1.69536 -1.1568 
1659 2 2.03488 -0.827885 -1.66689 
1266 2 1.63724 -1.44689 -0.871686 
1819 2 2.80288 -0.471299 -1.6137 
846 1 3.18159 -1.61338 -1.60627 
962 1 3.81681 -1.5265 -0.851731 
215 1 3.25665 -1.96355 -0.407045 
145 1 4.61807 -1.42825 -0.580098 
279 1 4.77572 -1.083 -1.27207 
1445 2 5.20247 -2.00843 -1.58679 
983 1 5.44334 -0.994325 -1.01203 
737 1 -5.72253 -0.62522 -1.10832 
692 1 -4.33354 -0.200029 -0.647054 
489 1 -4.30945 0.238408 -1.75459 
472 1 -3.26698 0.506763 -1.79301 
969 1 -3.67506 0.185699 -1.10676 
1337 2 -2.41918 -0.293183 -1.36869 
259 1 -2.80056 0.613619 -1.05362 
1893 2 -1.95696 -0.561205 -0.656775 
1834 2 -0.926733 0.426624 -2.00357 
1972 2 -1.59604 0.0065214 -1.41158 
1761 2 -1.17592 -0.113922 -0.76419 
502 1 0.522164 -0.455713 -1.29401 
1589 2 -0.548244 0.28646 -1.26744 
625 1 1.32678 -0.192973 -1.35318 
601 1 1.74417 -0.284001 -0.528761 
50 1 2.91738 0.385938 -0.998068 
243 1 2.02728 0.156886 -1.33218 
1360 2 3.71815 -0.332064 -1.32438 
198 1 5.36189 -0.53998 -1.90349 
1045 2 5.21467 0.498656 -1.68759 
1508 2 4.60041 0.0558523 -1.32177 
1897 2 4.206 -0.383607 -0.56471 
1229 2 -5.4401 0.930188 -1.60689 
1564 2 5.82578 0.385822 -1.13779 
1622 2 -4.67375 1.19751 -1.36458 
1679 2 -3.50054 1.50405 -1.12725 
2047 2 -2.44116 1.83235 -0.870557 
613 1 -2.64969 0.879755 -2.17313 
189 1 -2.03561 0.961949 -1.41317 
115 1 -1.39718 1.2994 -1.56124 
910 1 -1.7515 0.865948 -0.627238 
1187 2 0.182113 0.666909 -1.472 
134 1 -0.734159 1.24329 -0.93884 
1386 2 0.90686 0.725809 -0.942293 
1681 2 0.855549 1.18781 -1.76226 
1297 2 1.56033 1.13095 -1.26928 
608 1 1.28488 1.78391 -0.501171 
1134 2 2.27968 1.72949 -1.74954 
783 1 2.31378 0.646854 -1.95275 
1866 2 3.61999 1.63077 -0.388952 
1712 2 2.28685 1.2847 -1.02805 
464 1 3.56484 0.797319 -1.0707 
935 1 4.57278 1.20056 -1.40992 
870 1 3.77151 0.484494 -0.204565 
944 1 5.21595 1.64422 -1.78669 
761 1 -5.77776 1.83821 -1.34664 
557 1 5.3914 1.4679 -1.00348 
351 1 -5.00739 2.08088 -1.01872 
1811 2 -5.43941 3.11619 -0.810009 
446 1 -4.49571 2.31774 -1.41247 
1000 1 -4.48574 1.98036 -0.189806 
739 1 -3.95406 2.32439 -0.81809 
1689 2 -1.83661 2.23026 -1.35575 
381 1 -3.40617 2.69179 -1.40428 
294 1 -1.98712 3.2209 -0.895512 
567 1 -2.7615 2.81142 -1.06627 
1304 2 -1.1401 2.64665 -2.01522 
1981 2 -0.64389 2.60587 -1.26166 
44 1 -0.152364 1.72712 -1.3452 
2023 2 -0.0821737 2.65746 -0.6903 
1983 2 -0.242823 3.03074 -1.88541 
1616 2 0.459223 3.18215 -1.26655 
1268 2 1.16507 3.66258 -1.65197 
1974 2 1.25887 3.23607 -0.789606 
660 1 0.78162 2.19265 -1.42858 
747 1 1.82116 2.29132 -0.952842 
828 1 2.57031 2.86432 -1.10513 
256 1 3.38665 3.2509 -1.77203 
1330 2 3.82015 2.27449 -1.44996 
1276 2 4.2822 1.92664 -0.695709 
183 1 3.36771 2.94808 -0.835266 
1757 2 -5.63196 3.23241 -1.61747 
1333 2 5.33633 3.00273 -1.69972 
1439 2 5.77423 2.71685 -0.909014 
13 1 -5.93088 4.6511 -2.16487 
132 1 -5.23652 4.33834 -0.944846 
952 1 -5.76889 4.02761 -0.427428 
1056 2 -4.67069 3.50558 -1.6189 
1287 2 -3.6658 3.60386 -1.27738 
1627 2 -4.33109 3.36449 -0.762567 
1992 2 -2.9163 4.32649 -1.62209 
520 1 -1.69717 3.57674 -1.75403 
925 1 -0.953759 3.49676 -0.807385 
224 1 -0.794806 3.91557 -1.54948 
1646 2 -1.87256 4.573 -1.50085 
627 1 -0.187908 4.36518 -2.16292 
985 1 0.232549 4.45205 -1.42896 
905 1 0.741089 4.18204 -0.733863 
1913 2 2.11063 3.96728 -1.66559 
1178 2 2.83268 4.06584 -1.00449 
1234 2 3.11414 4.62255 -2.71654 
786 1 5.04172 3.91351 -1.37657 
2015 2 2.99055 4.331 -1.96678 
379 1 5.28375 3.62237 -0.552634 
1604 2 -5.37988 5.53243 -1.05657 
1261 2 -5.25903 5.35658 -0.222219 
119 1 -3.22595 5.20977 -1.23675 