ITEM: TIMESTEP
10200
ITEM: NUMBER OF ATOMS
2048
ITEM: BOX BOUNDS pp pp pp
-5.9402623309719802e+00 5.9402623309719802e+00
-5.9402623309719802e+00 5.9402623309719802e+00
-5.9402623309719802e+00 5.9402623309719802e+00
ITEM: ATOMS id type x y z 
1002 1 -4.93511 -5.52312 -5.57961 
1192 2 -5.43717 -4.79899 -5.12568 
1358 2 -5.47359 -5.22172 -4.25071 
440 1 -5.6033 -5.79083 5.79854 
412 1 -3.982 -5.50839 -5.09223 
825 1 -4.63187 -5.85185 -4.84254 
91 1 -2.20262 -4.60173 -5.36604 
333 1 -3.2407 -4.99291 -5.2425 
1542 2 -2.30169 -5.8787 -5.25132 
1291 2 -1.48899 -5.49052 -5.23668 
1035 2 -0.593232 -5.32029 -5.17028 
1334 2 -0.195431 -5.37929 -4.39342 
1429 2 0.566856 -5.10405 -4.62145 
495 1 0.316867 -5.72569 5.78713 
1694 2 0.318266 -4.90988 -5.43874 
822 1 1.29273 -5.39485 -5.90106 
135 1 2.13805 -5.28131 -5.58163 
648 1 1.63028 -5.59152 -4.88603 
723 1 2.59459 -5.11989 -4.79898 
64 1 3.37805 -4.80335 -5.18141 
1677 2 3.26147 -5.71465 5.86578 
809 1 4.24723 -4.74592 -4.56834 
1272 2 5.62934 -5.17913 -4.87138 
1799 2 5.16368 -5.12979 -5.63709 
1875 2 4.74503 -5.63252 -4.84381 
1849 2 -5.92326 -4.78915 -5.85721 
273 1 -5.32138 -3.58134 -4.66515 
991 1 -4.62919 -3.19208 -5.17774 
223 1 5.82045 -3.6246 -5.67142 
1548 2 -3.73521 -4.17119 -4.8154 
1663 2 -3.47184 -4.01682 -5.62463 
2016 2 -4.46988 -4.19104 -5.37251 
1261 2 -2.87363 -3.80829 -4.96222 
1711 2 -1.76009 -3.23868 -5.42544 
855 1 -1.0553 -4.40482 -4.89502 
2009 2 -1.86564 -3.54495 -4.70594 
1004 1 -1.53751 -4.26806 -5.69424 
416 1 -0.493534 -4.04874 -5.40974 
227 1 -0.0384219 -4.11639 -4.77473 
924 1 -0.0932297 -3.55047 5.83903 
819 1 0.372275 -3.51985 -5.32434 
1746 2 0.859553 -4.28851 5.97995 
1790 2 1.76457 -4.1833 -5.38706 
1709 2 1.1414 -4.53773 -5.10943 
1129 2 2.53373 -4.04629 -4.92679 
1232 2 2.55644 -3.62658 5.90777 
429 1 4.23202 -4.52416 -5.41014 
1995 2 4.22921 -3.40692 -5.27204 
1475 2 3.34876 -3.75812 -5.02541 
75 1 5.06149 -3.99571 -5.37625 
1937 2 -5.09614 -2.49234 -4.77664 
1588 2 -5.31316 -2.11507 -5.74157 
218 1 -3.9463 -3.25991 -4.60948 
1745 2 -4.23251 -2.17702 -4.73172 
269 1 -4.06953 -2.94187 -5.76552 
391 1 -2.52361 -2.33139 -5.82092 
402 1 -3.28783 -2.72508 -5.16161 
196 1 -2.35001 -2.55385 -4.85479 
151 1 -1.68053 -2.12753 -5.36842 
1379 2 -1.00395 -3.00411 -5.52138 
1255 2 -0.227372 -2.49502 -5.72836 
1909 2 0.561769 -2.2425 -5.52879 
1555 2 0.648062 -2.54963 -4.66413 
1581 2 -0.884273 -3.30658 -4.66637 
1763 2 -0.186997 -2.78609 -4.90497 
939 1 1.61675 -3.1698 -5.31847 
202 1 0.942458 -3.18855 -5.82475 
1525 2 1.39403 -2.03989 -5.39992 
169 1 2.23401 -2.72871 -5.79219 
475 1 2.74741 -2.78465 -4.93371 
975 1 2.77303 -2.31483 5.60595 
485 1 3.73489 -2.49026 -4.84741 
1070 2 4.10125 -2.89817 5.77149 
609 1 4.40556 -1.99434 -5.07338 
779 1 3.31909 -2.26495 -5.59835 
1929 2 4.87067 -2.7284 -5.90952 
1465 2 5.87804 -2.59261 -5.13917 
730 1 -5.11383 -0.828737 -5.79278 
214 1 -3.95326 -0.821993 -4.71376 
1341 2 -4.02863 -1.58849 -5.83985 
1733 2 -3.50052 -1.76666 -5.06079 
505 1 -3.23844 -0.546364 -4.86878 
1809 2 -2.81415 -1.41629 -5.39404 
1569 2 -2.42294 -0.977892 5.91289 
1908 2 -2.15119 -1.26477 -5.0481 
1478 2 -1.22762 -0.937875 -4.85562 
1345 2 -1.56541 -0.822478 -5.61618 
387 1 -1.00873 -1.90548 -5.06239 
595 1 -0.446109 -1.43802 -5.65465 
556 1 0.347027 -1.38149 -4.94131 
578 1 0.33291 -0.985294 -5.79686 
1964 2 2.28388 -1.53968 -5.72431 
768 1 1.05697 -0.902023 -5.5667 
560 1 1.82302 -0.607948 -5.1801 
1190 2 2.2784 -1.77638 -4.92498 
1775 2 3.1077 -1.2837 -5.22016 
1224 2 3.49836 -1.03567 -5.95667 
2036 2 3.98727 -1.13795 -4.8948 
543 1 -5.91522 -1.33245 -5.41093 
771 1 5.11817 -1.64604 -5.73905 
740 1 5.36368 -1.76812 -4.9033 
1623 2 4.79064 -0.838411 -5.23426 
1830 2 5.83514 -0.393899 -5.48297 
1498 2 -5.23286 0.15406 -5.71783 
2028 2 -4.49072 0.314261 -5.00991 
932 1 -3.90271 -0.491563 -5.54251 
55 1 -2.98424 -0.246122 -5.6376 
701 1 -2.32139 -0.220633 -4.87982 
374 1 -2.2086 0.108718 -5.81156 
1184 2 -3.55937 0.406181 -4.52885 
1414 2 -0.741056 -0.400921 -5.66876 
212 1 -1.20675 0.569504 -5.83222 
749 1 -1.5209 0.282635 -5.10694 
1572 2 -0.478432 -0.468853 -4.82377 
1171 2 0.347279 -0.0799137 -5.10391 
1573 2 1.03678 0.0203318 -4.62782 
1963 2 0.93696 0.431636 -5.68612 
1223 2 1.5964 0.633447 -5.26584 
31 1 2.28312 -0.224803 -5.79592 
866 1 2.60872 -0.520851 -4.70067 
700 1 3.85525 -0.00580932 -5.57254 
469 1 4.49025 0.208399 -5.01055 
2001 2 5.61907 -0.399884 -4.72005 
818 1 5.61609 0.627823 -4.99638 
1634 2 5.10511 -0.269357 5.92305 
420 1 -5.64895 1.08745 -5.32833 
656 1 -5.01998 1.55539 -5.86638 
338 1 -4.44936 1.52577 -5.18776 
752 1 -3.88842 1.70696 -5.83665 
820 1 -3.32088 1.86362 -5.21034 
1643 2 -2.94666 0.8377 -5.3079 
1050 2 -1.7438 1.44662 -5.76457 
1736 2 -2.06928 1.18011 -4.91591 
1054 2 -1.36317 1.44802 -4.92599 
827 1 -0.625646 0.656172 -4.97128 
408 1 0.438528 1.25413 -5.29736 
829 1 -0.399589 0.994263 -5.75299 
380 1 1.8377 1.90268 -5.65918 
254 1 1.26341 1.50725 -5.0887 
551 1 1.10693 1.64948 5.72719 
1180 2 2.23736 0.867165 -5.78517 
1470 2 2.80048 0.992896 -5.02569 
1011 1 2.4832 1.98791 -4.97738 
1910 2 3.60463 1.06762 -5.04259 
1172 2 4.17851 1.13538 -4.52121 
1845 2 4.09785 1.55922 -5.60747 
319 1 5.71877 1.29778 5.79384 
302 1 5.19294 0.703829 -5.67568 
1204 2 4.79146 1.60914 -5.10478 
1431 2 -5.87857 2.04375 -5.23654 
1403 2 -5.32729 2.54284 -5.51876 
1716 2 -4.93893 2.28268 -4.701 
1620 2 -4.37066 2.78269 -5.40255 
1482 2 -3.44448 2.92259 -5.08998 
264 1 -2.68675 2.29606 -5.67209 
1015 1 -2.07098 2.32248 -5.096 
1175 2 -2.55884 3.18404 -4.86024 
1063 2 -0.946615 1.85123 -5.48899 
494 1 -1.66406 2.79233 -5.71037 
710 1 -0.872141 3.0944 -5.40608 
982 1 -1.32362 2.5587 -4.87222 
1884 2 -0.137516 2.41541 -5.4619 
1298 2 0.618001 2.52345 -5.91703 
1506 2 1.27287 2.61273 -5.41301 
1628 2 2.13029 2.90795 -5.2728 
1653 2 0.460673 2.23809 -4.88401 
895 1 3.04121 2.20256 -5.60856 
1979 2 2.88838 3.1729 -5.13717 
63 1 2.44954 2.35436 5.79333 
894 1 3.29857 1.89238 -4.33326 
621 1 3.68841 2.26816 -5.05463 
171 1 4.39547 2.51381 -4.63757 
396 1 4.77864 2.82518 -5.34402 
1396 2 5.4336 2.1687 -5.84907 
726 1 5.58756 3.05264 -5.00706 
178 1 5.42549 3.21369 5.90901 
923 1 -4.94233 3.73683 -4.99201 
1349 2 -5.23967 4.68197 -4.69171 
644 1 -5.15383 3.96838 5.78824 
204 1 -5.67511 3.42824 -5.49961 
797 1 -4.06862 3.74784 -4.71254 
45 1 -4.41906 4.15058 -5.63588 
509 1 -3.63476 4.24988 -5.13687 
1869 2 -3.12807 3.42681 -5.6085 
1096 2 -2.29762 3.66559 -5.64742 
1824 2 -1.76808 3.55646 -5.03103 
1161 2 -1.31647 4.09755 -5.25272 
1926 2 -0.323782 4.21645 -5.07167 
561 1 0.229378 3.44271 -5.62439 
1039 2 0.530312 4.48399 -4.79669 
815 1 0.949183 3.61195 -5.35841 
716 1 2.10052 3.90489 -5.04491 
415 1 1.47558 4.09385 -5.77086 
1130 2 2.76417 3.44736 5.90204 
777 1 2.59822 4.37849 -5.57514 
946 1 3.26514 4.66981 -5.12899 
1274 2 3.55115 3.49411 -5.05303 
1342 2 4.12573 4.06889 -5.60872 
1640 2 5.8813 4.35394 -4.85737 
1779 2 4.87323 4.13371 -5.4159 
1670 2 5.54674 4.64664 -5.62236 
1048 2 -5.34193 4.86196 -5.46394 
435 1 -5.54615 5.84979 -5.00199 
1413 2 -4.5913 5.17785 -5.43043 
1353 2 -3.51115 5.6585 -5.74314 
1526 2 -2.94675 5.54722 -4.99546 
1757 2 -1.93229 -5.86975 -4.45757 
577 1 -2.41523 4.43547 -4.72238 
755 1 -2.69984 4.76233 -5.63108 
729 1 -1.99077 5.15563 -5.63704 
17 1 -1.87257 4.7587 -4.13289 
632 1 -1.51527 5.03642 -4.87265 
687 1 -1.07773 5.4507 -5.68911 
123 1 -0.255988 5.69877 -5.61568 
82 1 -0.51531 5.16157 -4.73146 
1145 2 -0.772662 4.62119 5.80484 
1354 2 0.133513 4.6841 -5.8262 
1033 2 1.00346 4.96315 -5.45617 
503 1 0.739105 5.96326 -5.41889 
1032 2 1.58957 5.40162 5.95482 
1193 2 2.24707 5.53463 -5.2846 
1846 2 3.0626 5.81376 -5.34513 
501 1 4.12552 4.89283 -5.0746 
48 1 3.6588 4.95794 -5.8103 
1244 2 4.04885 -5.71239 -5.38241 
407 1 5.6061 5.81282 -5.30284 
318 1 4.58141 5.15119 -5.59681 
1394 2 -4.87064 -5.25912 -3.67312 
1312 2 -5.80412 -5.6576 -3.36767 
1285 2 -4.79084 -5.3937 -2.77703 
14 1 -3.50368 -5.6099 -4.43859 
1079 2 -4.04678 -4.81904 -4.03777 
473 1 -4.23991 5.83393 -3.94017 
255 1 -3.42121 -5.92525 -3.46203 
1008 1 -2.70846 -5.34108 -3.76374 
805 1 -2.64728 -5.07465 -4.68907 
508 1 -1.90323 -4.97065 -3.67778 
247 1 -1.80246 -4.6546 -4.5567 
274 1 -1.19612 -4.73387 -3.94543 
453 1 -0.811877 -4.98954 -3.28872 
1151 2 -1.00855 -5.78815 -4.40789 
1029 2 -0.224871 -5.7458 -3.57246 
1260 2 0.513532 -5.34048 -3.70613 
1338 2 0.619493 -5.62175 -2.88051 
1486 2 1.20352 -4.94271 -3.95876 
667 1 2.46853 -5.81722 -4.16088 
57 1 3.18756 -5.62062 -3.51261 
131 1 4.07054 -5.16957 -3.77046 
49 1 3.29417 -5.26629 -4.45359 
1604 2 5.42977 -5.68079 -4.12233 
19 1 4.91078 -4.38987 -4.58352 
847 1 4.96848 -4.8935 -3.81507 
878 1 -5.217 -4.15961 -3.87706 
496 1 5.71369 -4.34428 -4.05372 
1418 2 -4.65397 -4.66695 -4.78053 
798 1 -4.41296 -3.88994 -3.26927 
483 1 -4.57721 -3.60094 -4.12779 
1477 2 -3.30785 -4.37761 -4.08269 
1807 2 -3.26914 -4.62869 -3.17093 
1452 2 -2.58162 -4.07444 -4.11959 
1402 2 -2.50824 -4.16077 -3.1303 
902 1 -0.464931 -4.40094 -4.1885 
1280 2 -1.67339 -3.77898 -3.94939 
467 1 0.582503 -4.03719 -4.18411 
1370 2 -0.911345 -3.58956 -3.86381 
326 1 -0.0229106 -4.55282 -3.26159 
413 1 1.06706 -3.47086 -4.82841 
782 1 0.897722 -4.27601 -3.38416 
122 1 1.37944 -3.70619 -4.11487 
1737 2 1.8489 -4.54242 -4.56182 
1836 2 2.96764 -4.16369 -4.16122 
694 1 2.39878 -3.44996 -3.79803 
1678 2 2.30998 -4.70707 -3.80904 
1198 2 3.18075 -4.52775 -3.10088 
2010 2 3.89718 -3.8233 -4.3798 
1655 2 4.80549 -3.42277 -4.24942 
1844 2 3.66686 -4.21182 -3.71168 
339 1 5.87727 -3.92315 -4.81683 
1767 2 4.56008 -3.97608 -3.51523 
1201 2 5.36352 -3.54116 -3.50592 
1657 2 5.8254 -2.92352 -4.2092 
1871 2 -5.20389 -2.738 -3.89012 
1817 2 -5.67953 -3.26934 -3.32683 
524 1 -3.78146 -3.34355 -3.70285 
1911 2 -4.40657 -2.46159 -3.87295 
2007 2 -3.81764 -2.40575 -3.27719 
664 1 -3.07907 -2.98942 -4.29829 
236 1 -2.78869 -3.02267 -3.5533 
657 1 -1.98314 -2.76267 -3.99506 
573 1 -1.80726 -2.91705 -3.15197 
597 1 -1.28466 -2.42435 -4.43557 
1006 1 -1.12525 -2.43823 -3.57999 
1645 2 -0.00523723 -3.07597 -4.13055 
1083 2 1.52089 -2.21381 -4.54377 
1982 2 1.11217 -2.72989 -3.9268 
1676 2 1.96609 -2.53338 -3.59162 
136 1 2.07032 -3.18474 -4.53371 
277 1 3.17289 -3.11758 -4.13802 
1326 2 3.12306 -2.36635 -3.33007 
904 1 4.87403 -1.98071 -4.18305 
999 1 4.01686 -2.68674 -4.00406 
2032 2 5.08751 -2.81713 -4.86003 
784 1 4.74276 -2.64488 -3.53673 
66 1 5.66277 -1.95115 -3.75017 
291 1 -5.53191 -2.13401 -2.9277 
833 1 -4.79981 -1.04396 -4.8857 
161 1 -5.02028 -1.61582 -3.72461 
717 1 -4.3811 -1.22304 -4.14547 
848 1 -3.58324 -1.00774 -3.81541 
1097 2 -3.55694 -2.0811 -4.1167 
1271 2 -2.74208 -1.69506 -4.44312 
1682 2 -2.389 -1.74808 -3.66666 
419 1 -2.72408 -0.86694 -3.23379 
1867 2 -1.75783 -1.43359 -4.375 
1781 2 -1.48923 -1.47022 -3.62258 
367 1 0.422814 -1.66843 -4.03909 
35 1 -0.40264 -1.7597 -4.42375 
1537 2 -0.749325 -1.10413 -3.91424 
1644 2 0.142201 -0.890942 -3.40035 
8 1 1.24123 -1.09254 -4.63352 
421 1 1.29639 -1.61114 -3.72704 
674 1 1.94967 -1.04478 -4.04647 
1259 2 2.53756 -2.11893 -4.18295 
427 1 2.38312 -1.34038 -3.31563 
640 1 2.94642 -0.846475 -3.99985 
1363 2 3.3839 -1.69887 -4.38018 
1030 2 3.86653 -1.80104 -3.60153 
2048 2 4.23787 -1.17444 -3.99383 
205 1 -5.59768 -1.56853 -4.41324 
1110 2 5.36735 -0.951488 -3.62408 
1163 2 5.05203 -0.774434 -4.40971 
1754 2 -5.72812 -0.550391 -4.17896 
1111 2 -4.20421 0.071287 -4.20765 
1346 2 -5.27193 -0.148785 -4.78736 
278 1 -5.15049 0.66491 -3.64779 
1962 2 -4.93205 -0.44232 -3.69473 
1436 2 -3.31677 0.10177 -3.77317 
1876 2 -4.18493 -0.171762 -3.34324 
704 1 -2.8948 -0.791135 -4.13204 
37 1 -2.03892 -0.501384 -3.98633 
1761 2 -2.47128 0.46632 -3.57763 
234 1 -1.40615 0.00611308 -4.35917 
799 1 -1.06536 -0.191315 -3.56909 
898 1 -1.84808 -0.562265 -3.28875 
1296 2 0.205161 -0.491054 -4.25431 
789 1 -0.406568 0.41433 -4.01971 
517 1 0.385376 0.454818 -3.77791 
80 1 0.994419 1.12497 -4.23746 
1456 2 0.893213 -0.469948 -3.79208 
1975 2 1.68232 0.0123049 -4.10187 
1832 2 2.07438 -0.228092 -3.45836 
1412 2 2.21027 0.486843 -4.57891 
1777 2 2.77738 0.244866 -3.61872 
116 1 3.77185 -0.257826 -4.50079 
846 1 3.70598 -0.644415 -3.46317 
1673 2 3.37018 0.307856 -3.03804 
715 1 4.33968 -0.0566272 -3.9713 
872 1 5.11428 0.346194 -4.24444 
692 1 5.78338 0.298872 -3.66523 
109 1 4.89864 0.08504 -3.46674 
190 1 -5.66273 0.63306 -4.31496 
915 1 -5.02962 1.15963 -4.62325 
1377 2 -5.58809 1.88948 -4.17536 
697 1 -4.41669 1.00931 -3.98571 
980 1 -3.76981 1.49724 -4.55433 
164 1 -3.80039 0.992691 -3.48847 
689 1 -3.19251 1.38815 -3.90158 
489 1 -2.22476 1.72273 -3.52043 
1834 2 -2.67559 0.586869 -4.47578 
1364 2 -1.06279 1.30998 -4.11605 
1550 2 -1.75174 0.914287 -4.01947 
842 1 0.303966 0.874324 -4.59103 
1386 2 -0.205307 1.41655 -3.65256 
1310 2 -0.442844 1.72474 -4.62914 
760 1 1.7935 1.53168 -4.45253 
1838 2 0.903128 1.78628 -3.45372 
1021 1 1.86117 1.23513 -3.62455 
731 1 2.65958 1.42406 -3.8733 
2008 2 3.07217 0.470818 -4.38183 
1953 2 3.83833 0.837339 -3.79039 
232 1 3.60384 1.62502 -3.26546 
1497 2 5.44155 1.63003 -4.63311 
1068 2 4.7615 1.23198 -3.94164 
1858 2 5.6865 1.47976 -3.63897 
1654 2 -4.70648 2.07581 -3.79889 
676 1 -5.10359 2.96853 -3.43485 
188 1 -5.60935 3.25062 -4.59008 
1877 2 -3.64388 2.28098 -3.56133 
1728 2 -4.05753 2.46719 -4.49723 
1142 2 -3.08048 2.69751 -4.0411 
903 1 -2.76754 1.89416 -4.47232 
1625 2 -2.37481 3.08234 -3.93009 
719 1 -1.80031 2.2523 -4.21263 
585 1 -1.25502 2.17642 -3.46026 
397 1 -0.83822 2.64115 -4.22143 
852 1 -0.167224 3.20308 -4.79667 
843 1 0.0140549 2.82893 -3.78398 
310 1 0.659636 3.38151 -4.54876 
1683 2 0.334959 1.96904 -4.11223 
2020 2 1.48188 2.2587 -3.78162 
56 1 0.944368 3.19003 -3.73876 
1999 2 1.25535 2.31932 -4.56062 
1769 2 2.27699 2.81134 -4.43327 
1214 2 2.4976 2.39451 -3.58956 
1522 2 3.22243 2.749 -3.57025 
2039 2 3.21132 2.9923 -4.37856 
381 1 4.11301 2.04794 -3.90699 
811 1 4.95179 2.17544 -3.44015 
1562 2 3.89297 3.18678 -3.87109 
631 1 -5.86676 2.77652 -3.81115 
702 1 5.2348 2.5038 -4.28764 
7 1 5.72394 2.54676 -3.07058 
1971 2 -5.23406 4.20568 -3.86156 
1669 2 -4.30574 4.47904 -3.63461 
92 1 -4.84242 3.26048 -4.29924 
446 1 -3.70435 3.64983 -3.99926 
250 1 -3.10847 4.10199 -4.36068 
989 1 -3.10806 3.80044 -3.30532 
1476 2 -1.06193 3.45568 -3.37689 
772 1 -2.26873 4.24185 -3.63659 
1268 2 -1.59803 3.4673 -4.17938 
1689 2 -0.879804 3.92871 -4.34682 
1304 2 0.0766573 4.20659 -4.06373 
1372 2 0.727848 4.13017 -3.4695 
709 1 1.52062 3.45218 -4.41423 
2040 2 1.11573 4.68892 -4.2032 
1093 2 1.62012 4.4207 -3.46243 
884 1 2.3143 3.67264 -3.88387 
256 1 2.82947 4.04743 -4.53745 
394 1 3.24551 3.98421 -3.71187 
1618 2 4.22482 3.60727 -4.6528 
653 1 3.62722 4.42474 -4.36558 
835 1 4.03895 4.26243 -3.47299 
443 1 4.38963 4.67323 -4.17771 
1073 2 5.02554 3.84398 -4.67196 
1439 2 4.78906 3.49014 -3.86797 
1636 2 5.70395 4.00491 -3.87354 
699 1 -5.89107 5.42639 -4.25666 
918 1 -5.76158 5.07328 -3.47766 
346 1 -5.01782 5.52951 -4.12104 
1575 2 -4.4446 4.68732 -4.42841 
1275 2 -3.58818 5.00618 -3.94365 
1038 2 -3.74509 5.19814 -4.72852 
993 1 -4.14421 5.61875 -3.18303 
1957 2 -2.71507 5.36998 -4.12136 
1335 2 -2.35594 5.21551 -3.186 
340 1 -0.941852 4.81379 -3.86026 
1236 2 -2.28775 5.77718 -3.63086 
1329 2 -1.47641 5.74729 -3.78594 
568 1 -0.185667 5.09782 -3.72518 
628 1 0.307745 5.50985 -4.87537 
1668 2 1.66281 4.86651 -4.81772 
673 1 1.18813 5.82885 -4.50573 
959 1 0.510868 5.52398 -3.98702 
575 1 1.77998 5.72468 -3.85433 
1847 2 2.94319 5.2159 -4.44567 
1955 2 2.09385 4.70788 -4.1134 
1691 2 3.16748 5.12206 -3.59411 
1704 2 4.5183 5.85906 -4.12471 
1667 2 3.74611 5.73842 -4.61557 
1714 2 3.93678 5.4542 -3.75614 
662 1 5.00115 5.29162 -4.95999 
579 1 5.27762 4.91244 -4.06908 
1425 2 4.95729 5.74577 -3.45271 
1534 2 -5.43929 -5.9198 -2.70378 
1822 2 -4.53208 -5.75323 -2.04005 
284 1 5.82318 -4.59919 -3.21478 
864 1 -5.71966 -4.91078 -2.19488 
1197 2 -4.04368 -4.92763 -3.26811 
1404 2 -3.93046 -5.28798 -2.49489 
366 1 -4.56845 -4.28415 -2.49002 
1047 2 -2.80885 -4.96616 -2.45403 
229 1 -1.82493 -5.89372 -2.05708 
295 1 -2.37579 -5.6114 -2.87532 
260 1 -1.55233 -5.20971 -2.94152 
934 1 -0.828971 -5.38958 -2.26983 
5 1 -0.204285 -4.83192 -2.45338 
1592 2 1.49514 -5.28782 -3.31486 
1082 2 2.43785 -5.08945 -3.09181 
1742 2 1.18885 -5.86431 -2.14948 
1319 2 1.84426 -5.31411 -2.48894 
1563 2 3.03875 -4.92528 -2.31095 
180 1 2.37381 5.72632 -3.20237 
67 1 2.92691 5.87561 -2.46744 
1013 1 4.55828 -5.29592 -3.05921 
955 1 3.8255 -5.58252 -2.77888 
1521 2 3.84448 -4.52456 -2.65671 
153 1 4.59876 -5.50918 -2.20477 
452 1 5.4621 -5.2733 -1.99714 
666 1 5.30148 -5.17631 -2.73767 
1400 2 -5.1232 -3.30791 -2.66358 
411 1 -5.42397 -4.3896 -2.82518 
1545 2 -4.61704 -3.40248 -1.69026 
246 1 -3.65058 -4.11531 -2.09658 
313 1 -3.53138 -3.5617 -2.88006 
599 1 -2.92625 -3.71648 -1.99314 
1106 2 -2.19768 -4.46793 -2.44435 
1878 2 -1.60604 -4.18235 -3.03505 
1896 2 -1.05705 -4.32478 -2.1945 
1848 2 -0.881388 -3.758 -3.11104 
1580 2 -0.268736 -3.84786 -2.24607 
1263 2 0.51133 -3.62713 -2.36466 
547 1 1.79359 -3.94863 -3.28929 
107 1 0.662759 -4.58508 -2.65683 
321 1 1.55144 -4.38693 -2.5059 
403 1 2.80977 -3.6097 -3.08546 
1001 1 2.35699 -4.15429 -2.49953 
1240 2 4.69619 -4.07715 -2.66102 
602 1 4.38064 -3.10232 -2.7799 
140 1 3.32596 -3.56615 -2.26182 
2002 2 5.43371 -3.65949 -2.52684 
1664 2 -4.6642 -2.81401 -3.14557 
636 1 -5.71555 -2.52502 -2.04925 
592 1 -4.77609 -1.90226 -2.63871 
275 1 -4.96984 -2.22341 -1.67796 
1924 2 -4.26291 -2.76004 -2.40973 
1052 2 -3.4362 -2.61797 -2.39342 
388 1 -2.5074 -3.32755 -2.64472 
1086 2 -3.03808 -2.04238 -3.20735 
1505 2 -2.75346 -2.81135 -1.86076 
1391 2 -2.58365 -2.19555 -2.57683 
753 1 -1.74026 -3.23778 -2.17666 
526 1 -1.04769 -2.90654 -2.38336 
1449 2 -1.85486 -2.25446 -2.06319 
830 1 -0.311719 -2.19184 -3.59264 
1457 2 -0.00699738 -3.46931 -3.39053 
211 1 0.583034 -2.23562 -2.55376 
998 1 -0.340357 -2.54793 -2.85604 
1401 2 0.820145 -3.1223 -3.26467 
581 1 1.3297 -2.24154 -2.12647 
1991 2 1.29365 -3.32786 -2.40771 
1533 2 1.78266 -2.89358 -2.85536 
1123 2 2.61523 -2.69241 -2.52374 
1066 2 2.08994 -3.26898 -1.9555 
1947 2 3.08247 -2.70467 -1.82742 
471 1 3.69749 -3.251 -3.28881 
1167 2 4.19268 -2.0248 -2.55684 
1973 2 3.4419 -2.23937 -2.59808 
968 1 5.43844 -2.57628 -2.8633 
296 1 5.02325 -3.02745 -1.91142 
2035 2 -4.74997 -0.715361 -2.82201 
1826 2 -5.63368 -0.791237 -3.32045 
1792 2 -5.41958 -1.06049 -2.38517 
767 1 -4.30401 -1.54244 -3.18896 
58 1 -4.04928 -1.63835 -2.24286 
917 1 -3.50476 -1.24231 -2.99601 
449 1 -2.95117 -1.35488 -2.19889 
1635 2 -1.82012 -1.8016 -2.93758 
1808 2 -1.08222 -1.88486 -2.38294 
117 1 -2.22877 -1.04685 -2.46291 
59 1 -1.57465 -0.969401 -1.87187 
1870 2 -0.538142 -1.28375 -3.03006 
1916 2 0.41739 -1.21613 -2.46342 
11 1 0.565037 -2.04702 -3.3408 
1517 2 0.996638 -0.91907 -3.02321 
287 1 1.60377 -1.79204 -2.87423 
2046 2 1.23661 -1.14903 -2.08279 
1360 2 1.79815 -0.623306 -2.79706 
106 1 2.41848 -1.64745 -2.52682 
125 1 3.1231 -1.14138 -2.99609 
199 1 3.1396 -1.34305 -2.17632 
691 1 3.83683 -1.15806 -2.44943 
1641 2 5.01821 -1.68306 -2.4981 
1350 2 4.62902 -1.42128 -3.16645 
1946 2 5.77677 -1.31465 -2.87961 
230 1 -5.53479 0.168934 -2.93731 
32 1 -4.4969 0.638706 -2.91577 
1589 2 -3.81272 -0.478016 -2.39592 
1098 2 -3.06901 -0.0269717 -2.95841 
1206 2 -2.21278 0.150698 -2.64892 
630 1 -1.25264 -0.647732 -2.57623 
2043 2 -1.1226 0.414691 -2.15414 
499 1 -0.398496 -0.0872795 -3.14777 
1297 2 0.00738394 0.674385 -2.05085 
160 1 -0.483023 -0.363875 -2.17176 
963 1 0.333326 -0.212582 -2.36566 
625 1 1.28592 0.641634 -3.34202 
615 1 0.494578 0.276281 -3.00121 
464 1 1.3486 0.171814 -2.37894 
2027 2 2.56051 -0.206306 -2.76882 
1502 2 4.25374 0.633864 -2.85106 
241 1 4.51648 -0.495855 -2.90375 
1696 2 3.56101 0.00567052 -2.13304 
297 1 5.63944 -0.100976 -2.78441 
518 1 5.13108 -0.555454 -2.32182 
2030 2 5.41706 0.823198 -2.11351 
1986 2 -5.19812 1.67227 -3.13778 
1724 2 -4.74615 1.43606 -2.43799 
1861 2 -5.77595 1.26228 -2.67591 
900 1 -3.31619 1.02042 -2.75127 
1132 2 -4.28963 1.8131 -3.17908 
1512 2 -4.03462 1.73803 -2.17448 
613 1 -2.59422 1.22246 -3.10856 
189 1 -2.5371 0.949338 -2.13251 
1149 2 -1.16266 0.957739 -3.2777 
2022 2 -1.61656 0.364356 -2.88916 
686 1 -1.76622 1.53212 -2.72694 
134 1 -0.702839 1.69092 -2.39905 
259 1 -1.62798 1.29066 -1.92159 
1104 2 -0.528278 0.91956 -2.88154 
1187 2 0.322805 1.22701 -2.92715 
301 1 0.135582 2.2385 -2.53256 
1340 2 1.36456 1.6591 -2.62728 
1642 2 2.14419 1.89413 -2.81089 
594 1 2.07603 0.678423 -2.96249 
886 1 2.32209 0.712019 -2.11172 
50 1 2.93882 1.38063 -3.09842 
874 1 3.05942 1.09266 -2.29137 
104 1 3.83778 1.60361 -2.33297 
944 1 4.58499 1.73436 -2.69816 
1952 2 5.06153 0.927846 -3.00655 
194 1 -5.45978 2.50319 -2.66334 
69 1 -4.54617 2.90165 -2.67924 
926 1 -4.71929 2.38613 -1.82462 
516 1 -5.61758 2.1962 -1.78336 
1485 2 -3.35546 1.98852 -2.7508 
369 1 -4.18657 3.19167 -3.55391 
966 1 -3.94706 2.86624 -2.14 
1794 2 -2.74337 2.53641 -3.04522 
1938 2 -2.7652 1.9718 -2.17237 
1415 2 -2.02552 2.47416 -2.48886 
1607 2 -1.74659 2.97811 -3.15611 
1756 2 -0.802435 3.07296 -2.55759 
208 1 -0.593584 2.32174 -3.18235 
76 1 0.632869 2.76116 -3.14424 
885 1 1.80342 3.20424 -3.25942 
478 1 1.49086 2.73141 -2.55262 
896 1 2.21145 3.11402 -2.30049 
1461 2 2.78233 2.4905 -2.74099 
510 1 3.1177 3.53003 -2.17922 
1330 2 3.55503 2.71745 -2.82301 
1977 2 4.3828 3.02781 -3.09648 
1866 2 3.37334 2.27815 -1.81189 
761 1 5.49397 2.12158 -2.30775 
1026 2 4.89743 3.04428 -2.37787 
1825 2 5.79907 3.37858 -2.41812 
1333 2 -5.68235 3.79372 -3.14807 
1399 2 -5.32044 3.69569 -2.4092 
1278 2 -4.74929 4.08599 -3.06978 
1419 2 -3.95851 4.22763 -2.71755 
1105 2 -4.64476 3.67179 -2.0889 
276 1 -3.54373 3.2273 -2.90813 
26 1 -2.78837 3.38875 -2.66318 
520 1 -2.1062 3.36725 -1.8536 
733 1 -2.13268 3.85872 -3.02715 
612 1 -1.37907 4.47305 -3.21983 
720 1 -1.61231 3.83194 -2.2914 
86 1 -0.534546 4.61166 -2.8829 
1616 2 -0.138002 3.72004 -3.31335 
1183 2 0.286184 3.52261 -2.5237 
836 1 0.0889941 4.54657 -2.11698 
1071 2 1.05785 3.93768 -2.60771 
1042 2 2.30271 4.31107 -2.55407 
34 1 2.52086 3.5029 -3.04014 
1559 2 3.13718 4.72038 -2.19337 
448 1 3.44044 3.73531 -2.82974 
552 1 4.19169 4.07302 -2.64415 
1994 2 5.24825 3.44319 -3.11767 
775 1 4.90089 4.53821 -3.40878 
432 1 5.00647 4.39969 -2.5598 
166 1 -5.43607 4.78705 -2.53776 
370 1 -4.99499 5.34198 -3.23158 
589 1 -3.68248 5.23734 -2.25899 
342 1 -3.10604 5.8524 -2.67425 
1287 2 -3.29545 4.72634 -3.17177 
1325 2 -2.76569 4.59754 -2.48925 
1601 2 -2.00838 4.81773 -2.29394 
1339 2 -1.63506 5.3411 -2.8176 
1543 2 -0.746502 5.37085 -2.29364 
1571 2 -1.07663 5.77971 -3.10886 
1818 2 -0.191639 5.88338 -2.7245 
564 1 0.351855 5.03255 -2.96609 
652 1 0.827789 4.93198 -2.24265 
442 1 1.09451 5.4307 -3.29176 
1593 2 2.60319 4.62324 -3.26574 
487 1 1.68791 5.33649 -2.7827 
1489 2 4.39802 5.4647 -2.94386 
1612 2 3.6228 5.12071 -2.79629 
1090 2 4.01927 4.92189 -1.95898 
262 1 5.65659 4.67616 -2.78547 
1773 2 5.57455 5.7484 -2.83907 
2000 2 5.02148 5.37004 -2.16578 
280 1 -5.84908 -5.38155 -1.37435 
142 1 -5.13373 -5.32782 -0.818566 
182 1 -4.98738 -4.89277 -1.70678 
1454 2 -3.2254 -5.25488 -1.70836 
724 1 -4.44053 -4.91334 -0.910861 
1815 2 -3.92761 -5.80679 -1.42466 
1783 2 -2.38929 -5.20098 -1.55576 
1802 2 -2.317 -5.37144 -0.76166 
337 1 -1.10828 -5.6784 -1.52033 
1613 2 -1.4669 -4.85374 -0.83778 
147 1 -0.286327 -5.39504 -1.55053 
328 1 0.397241 -5.04794 -1.90413 
661 1 0.573605 -5.35072 -1.02792 
20 1 1.48351 -4.85677 -1.06037 
1081 2 0.879727 5.6903 -1.17893 
1887 2 2.31532 -5.27611 -1.78393 
1928 2 1.76215 -5.76603 -1.52987 
2019 2 2.97814 -5.31803 -1.2431 
1194 2 3.89076 -5.00902 -0.922587 
1859 2 3.59987 -4.93829 -1.77174 
422 1 3.78022 -5.8596 -1.94708 
2017 2 4.80313 -4.67941 -0.98872 
1765 2 4.32169 -4.56572 -1.85948 
456 1 4.95581 -5.60245 -1.41961 
988 1 5.89496 -5.65949 -0.664952 
1217 2 -5.09253 -3.94763 -1.22514 
504 1 -3.95439 -4.51057 -1.43302 
1387 2 -4.21675 -3.65529 -0.87907 
1948 2 -3.30999 -3.65717 -0.325786 
71 1 -2.14815 -3.81411 -1.6761 
21 1 -2.83536 -4.22553 -1.29034 
1843 2 -1.63147 -4.85789 -1.75073 
844 1 -2.01286 -3.78868 -0.867719 
986 1 -1.35658 -3.45192 -1.15802 
1246 2 -0.823572 -4.46556 -1.27206 
1753 2 0.161254 -4.11119 -1.50005 
938 1 1.03992 -4.78838 -1.75091 
1894 2 1.03532 -3.64729 -1.47528 
914 1 1.83155 -4.4067 -1.68821 
1658 2 1.15478 -3.92726 -0.6417 
1738 2 1.88086 -3.45242 -1.17336 
550 1 2.25743 -4.59742 -0.837422 
639 1 2.8779 -4.11859 -1.71644 
754 1 3.7583 -3.79911 -1.30237 
928 1 4.29864 -3.98006 -0.521396 
137 1 3.12226 -4.25666 -0.791966 
1131 2 -5.74591 -3.73622 -1.88039 
562 1 4.16391 -3.36892 -2.03607 
1530 2 5.15072 -4.21779 -1.8919 
1471 2 5.85011 -4.30115 -1.32876 
311 1 4.74867 -3.43131 -1.2298 
1487 2 5.61511 -4.81217 -0.635786 
764 1 -5.60367 -3.17818 -0.458313 
734 1 -5.27668 -2.85427 -1.15787 
1289 2 -3.8345 -3.0821 -1.45219 
219 1 -4.09984 -2.0737 -1.28543 
1442 2 -3.05975 -3.12812 -1.15823 
1216 2 -2.12018 -2.68125 -1.35953 
1113 2 -1.32272 -2.6546 -0.411332 
1069 2 -1.31909 -2.19135 -1.41662 
677 1 -0.823254 -3.03251 -1.54625 
703 1 -0.0124331 -3.2086 -1.15591 
566 1 -0.0224835 -2.6652 -2.10481 
215 1 1.60756 -2.35615 -1.31347 
705 1 0.64722 -2.78302 -1.69716 
839 1 2.96274 -1.62559 -1.39961 
1923 2 2.66577 -3.27939 -1.05478 
1279 2 3.98037 -2.47713 -1.70257 
1698 2 3.4188 -2.86919 -0.987142 
1028 2 4.48105 -2.50449 -0.759879 
213 1 5.74156 -3.04068 -1.34235 
1978 2 4.94629 -2.1358 -1.57881 
1587 2 -5.07986 -1.29972 -1.4105 
1990 2 5.74911 -1.57562 -1.84595 
1169 2 -5.64257 -1.83495 -0.980704 
1972 2 -4.70149 -0.744857 -2.02668 
1940 2 -4.2925 -1.07452 -1.13011 
1025 2 -3.60198 -0.678058 -1.54828 
285 1 -3.3866 -1.78227 -1.58212 
722 1 -2.78325 -1.95226 -0.973662 
548 1 -2.27694 -1.41972 -1.59076 
948 1 -2.13919 -1.80417 -0.469939 
1174 2 -3.1622 -0.965999 -0.652361 
447 1 -0.76457 -0.838079 -1.45835 
683 1 -1.64261 -1.27024 -1.03206 
1819 2 -0.248473 -1.55356 -2.27826 
1057 2 0.532982 -1.65355 -1.606 
1796 2 -0.41928 -1.85387 -1.51707 
1897 2 1.77816 -1.30662 -1.34046 
1831 2 1.07345 -1.45147 -0.83922 
377 1 2.24495 -2.04906 -1.74801 
1568 2 2.07098 -0.773696 -1.85296 
1361 2 2.48648 -0.885581 -0.957085 
334 1 4.52676 -0.966457 -1.95604 
1758 2 3.29529 -0.440449 -1.22811 
626 1 3.81876 -1.56859 -1.48148 
867 1 4.57734 -1.29964 -1.01083 
279 1 -5.8366 -0.736339 -0.600932 
168 1 5.41956 -0.733413 -1.49817 
958 1 -5.41292 -0.243749 -1.31892 
654 1 -4.99438 0.181607 -2.23468 
876 1 -5.87435 -0.0972024 -2.05233 
1508 2 -5.1954 0.779941 -0.91718 
824 1 -4.00773 0.678571 -2.2934 
912 1 -4.67934 -0.00725732 -1.36541 
921 1 -4.02535 0.419439 -1.47626 
1432 2 -2.87632 -0.27975 -2.08303 
1128 2 -2.7079 -0.376775 -1.36291 
1507 2 -1.96458 0.0259111 -1.76146 
307 1 -2.94346 0.623465 -0.952841 
1323 2 -1.44199 -0.107678 -1.10888 
1067 2 -0.697197 0.21893 -1.38749 
601 1 0.227429 -0.673633 -1.34799 
1893 2 0.0793675 0.424499 -1.0216 
1213 2 -0.242939 0.181358 -0.326394 
776 1 0.851433 -0.26401 -1.73219 
121 1 1.65143 0.0566307 -1.34291 
90 1 2.50126 0.496847 -1.17055 
1314 2 2.69321 -0.253593 -1.82268 
1320 2 4.49733 0.417166 -2.1147 
1680 2 4.1156 -0.202934 -1.49163 
1564 2 4.97781 0.251339 -1.48901 
1220 2 5.76296 0.68329 -1.16555 
1720 2 -4.81473 1.20989 -1.5943 
1803 2 -5.58848 1.02343 -1.9852 
351 1 -5.56606 1.60532 -0.404225 
1282 2 -3.95607 1.42271 -1.05007 
1520 2 -3.27394 1.73164 -1.52452 
94 1 -3.25776 0.772613 -1.65036 
1776 2 -2.7246 1.66887 -0.821031 
192 1 -2.19309 0.915242 -1.39985 
919 1 -1.136 1.09133 -1.26928 
614 1 -1.83694 0.741273 -0.46856 
115 1 -0.487604 1.67237 -1.52712 
1944 2 0.814071 1.13916 -2.02591 
608 1 -0.379987 1.35275 -0.641327 
910 1 0.150954 2.05919 -1.78533 
1860 2 0.80754 0.765165 -1.24495 
1158 2 1.6422 1.43899 -1.80806 
1726 2 1.54199 1.08202 -1.08266 
1681 2 2.49756 1.47605 -1.01502 
1967 2 2.39554 1.89424 -1.98915 
1874 2 3.3493 1.87362 -1.10633 
783 1 3.4958 0.86758 -1.53991 
492 1 4.30127 1.23439 -1.5771 
858 1 4.01002 0.644973 -0.620405 
110 1 5.88478 1.82173 -1.14061 
1017 1 4.91051 1.77173 -1.73705 
16 1 4.79279 1.27058 -0.810582 
1527 2 5.76915 3.0899 -1.60729 
1685 2 -4.4508 3.45355 -0.935293 
1003 1 -5.00381 2.05957 -1.00208 
298 1 -3.86863 2.64133 -1.24905 
879 1 -3.10972 2.58894 -0.634925 
781 1 -4.22877 2.29818 -0.53977 
1839 2 -2.04898 2.04865 -1.41292 
460 1 -2.52938 2.98196 -1.23637 
323 1 -3.2028 2.84392 -1.76496 
1959 2 -1.22958 2.57652 -1.91265 
2021 2 -0.695304 2.68483 -1.25052 
1023 1 -1.94537 3.20605 -0.742403 
1092 2 -1.35408 2.33149 -0.963928 
1968 2 0.194851 3.1994 -1.20292 
240 1 1.06546 2.38811 -1.90837 
1679 2 -0.270791 3.16321 -1.97471 
828 1 1.84429 2.67182 -1.52923 
937 1 1.17453 2.14121 -1.03751 
183 1 2.67952 2.95451 -1.60599 
143 1 2.54995 2.59293 -0.763525 
1786 2 4.11717 2.24668 -1.21769 
379 1 3.52833 3.14864 -1.03547 
1328 2 4.07916 2.70255 -2.15538 
1686 2 5.04191 2.51931 -0.759595 
1368 2 4.88902 2.79615 -1.6591 
355 1 5.74754 4.27772 -1.9749 
961 1 -4.87403 4.70025 -1.83245 
1056 2 -5.23935 3.36096 -1.48582 
641 1 -4.79409 4.39263 -0.695819 
1992 2 -3.19546 4.04396 -1.93809 
1853 2 -3.90851 3.86283 -1.56508 
1348 2 -2.37292 4.35791 -1.66285 
1155 2 -3.00617 3.98104 -1.13267 
418 1 -1.41804 3.71124 -1.29445 
165 1 -0.852381 3.69603 -0.696515 
111 1 -0.895031 4.0096 -2.16778 
1646 2 -1.84444 4.59169 -1.04428 
361 1 -0.360079 4.16883 -1.31319 
1499 2 1.67161 4.00348 -2.02749 
1981 2 0.838527 3.53029 -1.85368 
1854 2 1.63667 3.67202 -1.28769 
905 1 1.66759 4.71079 -0.799839 
736 1 0.786891 4.50527 -1.35291 
1764 2 2.45248 4.06829 -1.5574 
742 1 4.44332 3.56895 -0.995866 
181 1 3.92225 3.59684 -1.7361 
1178 2 3.50596 4.52032 -1.45314 
1868 2 3.06957 4.02235 -0.816585 
582 1 5.68264 3.88249 -0.884836 
974 1 -5.44107 4.38866 -1.28282 
650 1 5.08424 3.93329 -1.56842 
580 1 -5.65437 3.87443 -0.187107 
1362 2 -5.6459 5.45286 -1.08028 
1122 2 -5.23906 5.69747 -1.86562 
952 1 -4.47269 5.14105 -2.50245 