ITEM: TIMESTEP
15200
ITEM: NUMBER OF ATOMS
2048
ITEM: BOX BOUNDS pp pp pp
-5.9307916899869291e+00 5.9307916899869291e+00
-5.9307916899869291e+00 5.9307916899869291e+00
-5.9307916899869291e+00 5.9307916899869291e+00
ITEM: ATOMS id type x y z 
1633 2 -5.05561 -4.87305 -4.8469 
473 1 -4.96423 -5.62505 -5.78376 
435 1 -5.75939 5.81032 -5.52054 
1227 2 -5.47507 -4.6067 -5.62944 
333 1 -3.59279 -4.87035 -5.62878 
14 1 -4.13335 -5.41757 -5.29347 
346 1 -4.26229 -5.77649 -4.49449 
91 1 -2.52995 -4.81035 -5.05148 
805 1 -3.2931 -5.22156 -4.80925 
1138 2 -2.24428 -5.55435 5.9134 
416 1 -1.67984 -4.66787 -4.56991 
1958 2 -2.00259 -5.59452 -5.28313 
2029 2 -1.32657 -5.29349 -5.80542 
1035 2 -0.731868 -5.15435 -5.41378 
1429 2 0.0716358 -4.70165 -5.22243 
1291 2 -0.114693 -5.2671 -4.49626 
350 1 0.629943 -5.71943 -5.37518 
1709 2 0.904061 -4.54429 -5.54306 
495 1 1.30123 -5.61737 -5.92915 
1486 2 1.67308 -4.45498 -4.94684 
575 1 1.71617 -5.55172 -5.01206 
648 1 2.19132 -5.23358 -5.5941 
442 1 2.71621 -5.25753 -4.7534 
1704 2 3.93691 -5.70788 -5.36809 
180 1 3.50322 -4.66101 -5.07051 
1612 2 4.2816 5.96349 -4.59772 
1192 2 4.73637 -5.47432 -5.35413 
1799 2 -5.84251 -5.08117 -4.98046 
511 1 -5.19339 -3.61818 -4.89066 
675 1 -5.82208 -3.63244 -5.68818 
251 1 -5.10909 -3.29612 -5.77525 
1103 2 -4.70112 -4.3603 -5.41841 
1046 2 -3.92951 -4.14069 -5.03713 
1711 2 -3.0301 -3.91787 -5.10506 
1231 2 -2.37798 -3.81737 -4.52027 
2009 2 -2.01267 -3.39115 -5.05631 
227 1 -0.961557 -4.28559 -4.93747 
924 1 -1.71587 -4.36153 -5.31893 
819 1 -0.420304 -3.76974 -5.32561 
202 1 0.109618 -3.44499 5.80066 
136 1 0.475545 -3.57282 -5.12655 
1790 2 1.50524 -4.16977 -5.90412 
1678 2 2.26326 -3.92984 -5.62709 
1737 2 2.85109 -3.79073 -4.97764 
1705 2 2.52228 -3.53518 5.57788 
57 1 4.64654 -4.29397 -5.55332 
1232 2 3.70208 -3.56162 -4.94467 
1483 2 3.29185 -3.38317 -5.76914 
496 1 5.38027 -3.91244 -5.20155 
809 1 5.05933 -4.43157 -4.38259 
429 1 5.24743 -3.59189 5.68613 
1937 2 -5.41976 -2.65396 -4.75106 
1475 2 -5.75434 -2.40809 -5.79484 
353 1 -4.34053 -3.20174 -5.18248 
1243 2 -4.1682 -2.19548 -4.73332 
218 1 -3.44251 -2.82092 -5.39757 
664 1 -2.68694 -2.51927 -4.92998 
196 1 -1.92159 -2.37046 -4.38797 
151 1 -1.91828 -2.17913 -5.27301 
1379 2 -1.41764 -3.0116 -5.6991 
35 1 -1.17151 -2.02448 -5.02413 
1370 2 -0.947048 -2.98822 -4.9326 
1255 2 -0.339339 -2.61513 -5.61054 
1763 2 -0.0965879 -2.8635 -4.71594 
1909 2 0.277297 -2.22686 5.63291 
1190 2 1.85651 -2.02215 -4.77597 
1 1 1.01882 -3.17579 -5.76439 
1525 2 0.41755 -2.34528 -5.17299 
939 1 1.90784 -3.00682 -5.42323 
277 1 2.77932 -2.71866 -5.07335 
694 1 2.81956 -2.43827 -5.93135 
1129 2 4.58085 -3.30159 -4.99624 
485 1 3.57553 -2.32293 -5.38361 
904 1 4.42613 -1.84164 -5.65238 
602 1 3.7626 -2.66946 -4.53601 
1070 2 4.02004 -3.32849 -5.69444 
1465 2 5.4729 -2.78749 -5.14581 
1995 2 4.84858 -2.76707 -5.73125 
1588 2 -4.8617 -2.17068 -5.29988 
771 1 -4.89015 -1.05241 -5.36347 
740 1 -5.27044 -1.51378 -4.6313 
205 1 -4.42605 -1.19312 -4.30895 
1745 2 -3.58548 -1.72181 -5.32454 
1733 2 -2.75337 -1.0745 -5.7433 
1097 2 -3.03664 -1.59838 -4.44192 
1271 2 -2.37765 -1.32586 -4.94532 
1809 2 -1.98513 -0.845722 -5.54592 
1345 2 -1.37591 -1.02934 -4.96896 
595 1 -1.43418 -1.63488 -5.88376 
830 1 -0.533924 -1.48198 -5.47317 
578 1 0.595743 -1.17416 -5.48514 
367 1 0.0626749 -1.15931 5.84904 
1820 2 1.23978 -2.09529 -5.48277 
42 1 1.3579 -0.730247 -5.35152 
1964 2 2.33785 -1.6148 -5.33955 
1590 2 2.77362 -1.29178 5.81441 
1259 2 3.36672 -1.19741 -5.02469 
1775 2 3.82478 -0.821059 -5.75439 
1332 2 5.10886 -0.541911 -5.06026 
308 1 -5.85425 -1.32404 -5.32755 
999 1 5.42373 -1.84415 -4.79346 
1615 2 -5.34271 -0.0322382 -5.04627 
1797 2 -5.26214 0.28257 -5.82945 
833 1 -4.13961 -0.861879 -4.91667 
543 1 -4.18293 -0.457653 -5.7888 
1498 2 -4.40987 0.487004 -5.55372 
1346 2 -3.83829 0.434966 -4.88913 
505 1 -3.44865 -0.562521 -5.25641 
386 1 -2.8271 0.0778622 -5.74892 
451 1 -2.28155 0.114723 -5.07232 
827 1 -1.83771 0.477659 -5.69028 
1975 2 -0.693748 -0.509776 -5.09472 
789 1 -1.10063 0.515134 -5.13712 
1963 2 0.32719 -0.206115 -5.11111 
517 1 -0.332605 0.869407 -5.44631 
1804 2 -0.281827 -0.242665 -5.77445 
1500 2 0.763449 0.0848939 -5.76932 
1223 2 1.07943 -0.19152 -4.42118 
1852 2 1.27672 0.178589 -5.03039 
31 1 2.18623 -0.551665 -5.54272 
1180 2 2.05829 0.327381 -4.71393 
138 1 2.83957 -0.117373 -5.89153 
560 1 2.69949 -0.427231 -4.69765 
1224 2 4.80776 -0.474564 -5.91484 
758 1 3.49814 -0.0527598 -5.20408 
469 1 4.34927 0.0908054 -4.75266 
1494 2 5.76716 -0.104529 -5.52707 
1623 2 5.83084 -0.615059 -4.58904 
302 1 5.11219 0.576559 -5.08516 
656 1 -5.3445 1.08792 -4.75594 
752 1 -4.77909 1.3643 -5.3763 
2028 2 -3.72903 0.863025 5.9089 
697 1 -4.04896 1.83958 -5.64614 
338 1 -4.27319 1.3377 -4.70068 
1962 2 -3.26464 0.828771 -5.2135 
190 1 -3.60095 1.89636 -4.8802 
1256 2 -2.10976 1.59048 -5.5818 
1736 2 -2.53776 1.09352 -4.81705 
1050 2 -1.77693 1.42344 -4.83562 
1298 2 -1.36644 1.83173 5.90716 
1054 2 -1.02318 1.71765 -5.04067 
212 1 -1.27339 0.932234 5.71601 
842 1 0.423117 1.15571 -5.62277 
156 1 0.933941 1.55105 5.62435 
551 1 0.98629 1.08927 -4.91816 
380 1 1.45999 1.57497 -5.34124 
2041 2 1.98373 0.517085 -5.59631 
1882 2 2.73703 0.875285 -5.24401 
895 1 2.28707 1.7118 -5.1428 
1470 2 3.75667 1.25189 -5.30345 
1204 2 4.44273 1.58732 -5.55611 
915 1 -5.84159 1.02268 -5.43973 
1068 2 4.91135 1.57172 -4.87433 
1403 2 5.91579 2.03723 -5.0267 
32 1 5.83773 0.564423 -4.47588 
1377 2 -5.07876 2.29066 -4.91832 
1717 2 -5.57146 2.44601 -5.61163 
1716 2 -4.38638 2.69906 -5.21336 
1620 2 -4.13696 3.25609 5.86057 
1175 2 -3.53195 3.34479 -5.42346 
820 1 -3.07961 2.30047 -5.47242 
982 1 -2.37567 2.42528 -5.10058 
1625 2 -2.79928 3.28862 -4.7187 
494 1 -2.62961 2.83873 5.87859 
852 1 -1.74305 2.8664 -5.66368 
310 1 -1.38472 2.58672 -4.89633 
1884 2 0.110298 2.02976 -4.79273 
561 1 -0.533176 2.98227 -4.88793 
1506 2 0.486076 2.38564 -5.59082 
1769 2 1.1916 2.45997 -5.11885 
1130 2 1.73735 2.95385 -5.41492 
1628 2 2.34526 2.6889 -4.8081 
1979 2 2.48955 3.42984 -5.5628 
401 1 2.01637 2.10142 5.88282 
796 1 3.32114 2.36323 -5.45483 
574 1 4.04882 2.53007 -5.18119 
396 1 4.82236 2.9205 -4.93844 
1497 2 5.315 2.13476 -5.56738 
204 1 5.65899 3.10214 -5.01065 
923 1 -4.72496 3.66435 -4.95262 
644 1 -5.64297 3.62634 -5.45281 
1640 2 5.76406 4.42887 -5.04528 
891 1 -5.27636 3.9953 5.79479 
45 1 -4.52962 4.17028 -5.65197 
92 1 -3.75335 4.03678 -4.75839 
687 1 -3.72856 4.64191 -5.51761 
1824 2 -1.69736 3.80647 -5.03475 
1869 2 -2.49129 3.69441 -5.34981 
632 1 -2.88782 4.62645 -5.08765 
1336 2 -0.904269 4.23844 -5.28061 
1161 2 -0.911414 3.76824 -4.35999 
1268 2 -1.80398 3.38266 -4.323 
593 1 -0.728491 3.19579 -5.70302 
1354 2 -0.146506 4.32396 -4.88064 
56 1 0.262055 3.40544 -5.17764 
709 1 1.5458 3.97036 -5.09568 
716 1 0.913377 3.86034 -5.71806 
884 1 2.456 4.33023 -5.39383 
256 1 2.98452 4.32479 -4.58235 
1274 2 3.19039 3.28507 -4.86735 
1342 2 3.46706 3.63918 -5.68659 
1618 2 4.16719 3.75664 -5.01477 
1146 2 4.29655 4.13675 5.90483 
178 1 5.36566 3.40074 -5.75759 
1779 2 4.91484 4.24559 -5.30905 
412 1 -5.04272 5.90109 -4.96755 
1088 2 -5.30172 4.81821 -5.30622 
1353 2 -3.6709 5.4898 -4.92604 
1413 2 -4.29084 4.96672 -4.53125 
797 1 -3.81918 4.72952 5.51119 
1551 2 -3.6657 5.82311 -5.85771 
1191 2 -4.48033 5.21276 -5.49141 
1365 2 -2.96942 5.92164 -5.40638 
1526 2 -2.29549 5.77977 -4.59931 
221 1 -2.25174 5.01207 -5.54621 
87 1 -0.878403 5.17038 -4.70988 
428 1 -1.20499 5.28022 -5.44224 
340 1 -1.94316 4.8381 -4.80093 
1145 2 -0.362691 4.66053 -5.80791 
528 1 -0.546471 5.73122 -5.68741 
2040 2 0.48456 4.7778 -5.42942 
1033 2 1.00486 4.71673 -4.70366 
1093 2 1.13537 5.21644 -5.64065 
1955 2 1.82328 5.17787 -5.05144 
1691 2 3.28168 5.6828 -4.98418 
1846 2 2.52155 5.59052 -5.36023 
777 1 3.53195 4.64184 -5.15984 
946 1 4.72745 5.16075 -5.13578 
407 1 4.15899 5.15289 -5.63504 
825 1 5.57975 5.47636 -4.93874 
699 1 5.24907 5.61574 -5.81596 
1969 2 5.47262 4.59592 5.68492 
1849 2 -5.55788 -5.25769 -4.23501 
2016 2 -4.76635 -5.12663 -3.64755 
1261 2 -3.8761 -4.79105 -3.61516 
508 1 -3.54175 -5.78365 -3.96993 
247 1 -2.60912 -5.19679 -4.32116 
274 1 -2.93872 -5.67446 -3.38507 
855 1 -1.38032 -5.03296 -3.85674 
453 1 -2.25925 -5.27104 -3.61764 
1542 2 -1.35881 -5.71907 -4.83473 
1151 2 -0.857802 -5.7268 -4.19828 
1334 2 0.511294 -5.25631 -3.86756 
1260 2 0.976949 -4.84993 -4.49484 
1887 2 1.73079 -4.74906 -3.8891 
1082 2 1.25514 -5.11752 -3.38164 
425 1 2.06464 -5.73986 -4.18425 
955 1 3.08665 -5.51123 -3.85092 
667 1 3.67898 -5.14079 -4.42136 
131 1 4.27552 -4.59647 -4.86454 
153 1 4.48075 -5.00216 -3.93641 
1358 2 5.22828 -5.43643 -4.71416 
1773 2 5.72577 -5.69717 -3.89102 
1272 2 4.8198 5.93443 -3.99485 
339 1 -5.92284 -4.53984 -3.61188 
223 1 -5.83112 -4.07169 -4.55015 
373 1 -5.07851 -3.9887 -3.89667 
991 1 -4.50634 -3.53939 -4.26229 
1663 2 -4.39724 -4.6896 -4.41815 
273 1 -3.73334 -3.313 -3.8495 
1602 2 -3.52082 -4.31978 -4.30588 
483 1 -4.32736 -3.78574 -3.26574 
1548 2 -2.83811 -4.32569 -3.73241 
1477 2 -1.89861 -3.84437 -3.80666 
1581 2 -1.42953 -3.513 -4.36815 
1848 2 -1.08167 -3.83453 -3.38313 
413 1 0.00712715 -4.08245 -4.32525 
467 1 -0.793677 -4.49584 -4.14022 
782 1 0.2289 -4.43495 -3.52963 
547 1 1.1343 -3.50755 -4.71808 
122 1 0.716957 -3.94176 -3.99015 
1001 1 1.71285 -3.67537 -3.94911 
938 1 1.135 -3.98223 -3.34443 
1592 2 2.35965 -4.28287 -4.44985 
1198 2 2.82534 -4.51934 -3.71172 
403 1 2.04673 -3.14676 -4.52746 
321 1 2.57547 -3.47357 -3.39993 
1836 2 3.39923 -4.00479 -4.1694 
1902 2 4.30488 -3.75181 -4.21409 
1844 2 4.05313 -4.20332 -3.43941 
1240 2 4.95163 -3.78624 -3.21744 
1657 2 -5.92419 -3.02319 -4.1769 
1664 2 -4.74468 -2.66162 -4.1287 
1871 2 -5.21608 -3.05388 -3.5954 
1924 2 -4.07066 -2.55123 -3.33278 
1911 2 -3.76313 -2.13095 -4.01352 
524 1 -3.4849 -3.13191 -4.60679 
313 1 -2.83351 -3.2972 -3.63908 
236 1 -2.76378 -2.72754 -4.17528 
1867 2 -3.13115 -2.1662 -3.26185 
599 1 -1.87693 -2.77219 -3.64359 
657 1 -1.14895 -2.22623 -4.02804 
597 1 -0.65881 -2.47671 -3.36663 
1645 2 -0.685528 -3.34458 -3.94218 
1006 1 -0.499249 -1.97593 -4.41444 
421 1 -0.0489696 -2.01571 -3.68771 
1401 2 0.409469 -2.91023 -3.98505 
1555 2 0.96072 -2.42031 -4.57788 
1083 2 1.72142 -2.3514 -4.01655 
1676 2 2.78107 -1.90169 -4.31421 
1326 2 3.34821 -2.01205 -3.62041 
639 1 2.73891 -2.98992 -4.21686 
471 1 4.14043 -2.94824 -3.71269 
1655 2 5.77929 -3.49983 -3.26516 
140 1 4.51187 -2.18161 -4.63026 
2010 2 5.24351 -3.43501 -4.19054 
562 1 4.87547 -2.46237 -3.99669 
968 1 5.71666 -2.40128 -3.3311 
66 1 -5.19476 -1.78977 -3.84843 
161 1 -3.91744 -1.24142 -3.5528 
717 1 -3.46633 -0.810892 -4.23413 
1908 2 -2.43978 -1.6628 -3.84274 
419 1 -2.87076 -0.667721 -3.55034 
1478 2 -1.82872 -1.28987 -4.33618 
1296 2 -1.5188 -1.51265 -3.47797 
8 1 0.059059 -1.45604 -4.81821 
674 1 0.566551 -1.63417 -4.17213 
1573 2 -0.879169 -1.04646 -4.11945 
1870 2 0.0179933 -0.992476 -3.53817 
1644 2 0.536145 -0.48399 -3.95663 
768 1 1.51086 -1.29552 -3.78073 
788 1 1.12419 -1.21323 -4.73947 
866 1 2.02474 -0.922642 -4.59132 
581 1 2.35572 -1.03626 -3.6704 
1363 2 3.73429 -1.5086 -4.20951 
2036 2 4.31584 -0.979557 -4.87321 
2048 2 4.54888 -1.46377 -3.77881 
784 1 5.87547 -1.96342 -4.02897 
1163 2 5.05804 -0.856082 -4.32212 
1110 2 5.33123 -1.35055 -3.36111 
2001 2 5.88206 -0.875819 -3.75658 
1634 2 -5.29631 -0.47052 -4.08508 
1830 2 -4.64377 -0.0149318 -4.62314 
1754 2 -4.54463 -0.400601 -3.60304 
1111 2 -3.9254 0.102326 -3.93687 
1876 2 -3.44431 -0.0649369 -3.18081 
214 1 -2.27625 -0.427021 -4.0501 
701 1 -2.93683 -0.351958 -4.64088 
1184 2 -3.2393 0.525716 -4.35412 
1643 2 -2.842 0.44118 -3.54837 
749 1 -1.71683 -0.0759615 -4.54755 
615 1 -1.12432 -0.178289 -3.76037 
1572 2 -0.214578 -0.510578 -4.44564 
80 1 -0.0278175 0.29523 -3.74938 
408 1 -0.652903 0.434443 -4.35792 
1777 2 1.63252 0.0750976 -3.84859 
1673 2 1.17414 -0.47462 -3.18476 
1021 1 0.668098 0.334881 -2.95997 
116 1 3.03209 -0.820821 -3.93767 
1412 2 2.63183 0.282033 -3.93719 
299 1 3.63307 -0.247856 -4.36165 
700 1 3.78078 -0.694242 -3.5394 
715 1 4.46909 -0.165634 -3.73931 
872 1 5.12298 0.2578 -4.19791 
109 1 5.48501 0.127987 -3.34935 
1810 2 5.63523 1.66278 -4.29495 
818 1 -5.51125 0.525515 -3.70176 
1877 2 -5.79694 1.43518 -3.52601 
278 1 -4.94622 0.983314 -4.16316 
1728 2 -5.30877 1.90635 -4.11505 
230 1 -3.53514 1.41925 -3.96501 
900 1 -4.3027 1.04643 -3.6692 
689 1 -2.90733 1.9942 -4.53451 
903 1 -2.5379 1.73877 -3.77487 
1550 2 -2.12977 0.714452 -4.12672 
1436 2 -1.62808 0.67292 -3.38358 
1149 2 -1.33488 1.24155 -4.12321 
1364 2 -0.398323 1.6169 -4.44421 
1310 2 -0.538017 1.14118 -3.51014 
1683 2 0.209481 1.66604 -3.86643 
254 1 0.237867 0.723058 -4.61054 
760 1 1.62941 1.23854 -4.40293 
594 1 0.671177 0.626853 -3.9057 
50 1 1.28634 0.876647 -3.53845 
1187 2 1.01865 1.93527 -3.58892 
1785 2 3.3922 0.8498 -4.5426 
894 1 2.5593 1.53869 -4.36815 
90 1 2.31591 1.18731 -3.56935 
1910 2 3.56346 0.714355 -3.77864 
1861 2 4.18488 1.1029 -4.444 
1172 2 4.38758 0.947923 -3.61913 
731 1 4.03013 1.82565 -3.39102 
171 1 3.21568 1.69511 -3.69152 
1132 2 4.97278 1.22834 -4.05906 
188 1 -5.44184 3.19053 -4.43109 
7 1 -5.6598 2.72987 -3.59885 
1482 2 -4.39179 2.28923 -4.2073 
69 1 -4.93479 3.18867 -3.82814 
1512 2 -3.81373 2.31909 -3.45658 
1142 2 -3.83041 2.88597 -4.43935 
1794 2 -2.1956 3.05417 -3.75678 
1485 2 -3.05988 2.75596 -3.86502 
1015 1 -2.00433 2.25902 -4.22308 
1607 2 -1.61265 2.7798 -3.00108 
686 1 -1.28236 2.08092 -3.65988 
208 1 -0.67964 2.50875 -4.18345 
843 1 0.278824 3.08047 -4.30563 
301 1 -0.163219 2.61872 -3.49555 
1653 2 0.770676 2.19947 -4.28267 
2020 2 1.64081 2.36597 -4.31652 
240 1 0.584806 2.99478 -3.53131 
885 1 1.10554 3.42536 -4.58173 
2039 2 3.23178 2.84652 -4.10681 
1999 2 2.44026 2.50249 -4.03481 
1214 2 2.92019 2.53462 -3.16969 
1011 1 3.36233 1.93714 -4.71324 
621 1 3.92304 2.11525 -4.23371 
1562 2 3.95734 3.27829 -4.36804 
631 1 5.55224 2.77226 -4.16678 
726 1 4.68036 2.34852 -4.42497 
702 1 4.9677 2.20863 -3.50334 
1048 2 -5.16967 4.50174 -4.45983 
1349 2 5.83543 4.03595 -4.23423 
1278 2 -5.43246 4.12854 -3.57539 
1575 2 -4.49874 4.53836 -3.81118 
676 1 -4.3279 3.62353 -4.21487 
446 1 -3.51433 3.58221 -3.54627 
755 1 -3.09425 4.09055 -4.23076 
577 1 -2.25939 4.41556 -4.09032 
250 1 -2.61556 3.92116 -3.42539 
1926 2 -1.2479 3.28665 -3.5784 
17 1 -1.50264 4.23721 -3.38338 
1372 2 -0.304219 3.91933 -3.89726 
1183 2 0.390787 4.01092 -3.37597 
1668 2 0.500508 4.26299 -4.23581 
478 1 1.51104 3.27746 -3.87502 
1071 2 1.19175 4.21863 -3.78563 
76 1 2.07553 3.73298 -4.42931 
34 1 2.63714 3.83103 -3.78251 
1977 2 4.44383 2.98459 -3.06723 
653 1 3.6067 4.21812 -3.90488 
775 1 4.42667 4.42465 -3.79767 
1073 2 4.97751 3.8543 -4.50222 
1439 2 4.70009 3.31993 -3.84997 
1636 2 5.53726 3.59219 -3.45935 
662 1 -5.54006 5.4636 -4.55278 
342 1 -4.7024 5.73766 -3.9582 
1335 2 -3.55964 4.99352 -3.88354 
255 1 -4.0627 5.6297 -3.37058 
1038 2 -2.97261 5.33097 -4.26855 
1757 2 -2.47221 5.26332 -3.64051 
612 1 -1.31696 4.77564 -4.11636 
1329 2 -1.60755 5.63981 -3.90381 
237 1 -0.0204423 5.51061 -4.92843 
123 1 -0.396987 5.22302 -4.07524 
82 1 0.447664 5.4975 -4.24205 
673 1 1.16329 -5.87527 -4.65338 
959 1 1.44902 5.72225 -3.77107 
1042 2 1.93216 4.70362 -4.07559 
1593 2 2.53387 5.27766 -4.48429 
487 1 2.47905 5.8956 -3.46554 
1499 2 2.53554 4.83111 -3.38747 
1764 2 3.10745 5.17989 -3.93664 
501 1 4.15761 4.68855 -4.52572 
1559 2 3.6786 5.65788 -4.13663 
1425 2 4.30256 5.47494 -3.53047 
443 1 5.0003 4.97679 -4.33471 
918 1 5.73734 5.04185 -3.90661 
1418 2 -5.48058 -5.5312 -3.19444 
878 1 -4.30766 -4.43202 -2.50163 
1534 2 -5.01826 -5.72955 -2.48718 
864 1 5.83041 -4.76101 -2.69029 
666 1 -5.20579 -4.83203 -2.00149 
1312 2 -3.75541 -5.4958 -2.40521 
1394 2 -4.40292 -5.23035 -2.87745 
1122 2 -4.50197 -5.73488 -1.85167 
1285 2 -3.0151 -5.11542 -2.13344 
1197 2 -3.34906 -4.85244 -3.01986 
260 1 -2.11689 -5.62232 -2.73144 
1807 2 -2.59319 -4.68999 -2.67047 
295 1 -2.6982 5.71017 -2.17773 
934 1 -1.71262 -5.76633 -1.87597 
5 1 -1.33511 -5.05539 -2.97089 
459 1 -0.976512 -5.31019 -2.18256 
1402 2 -1.78014 -4.51821 -2.30039 
902 1 -0.599899 -4.77976 -3.27793 
326 1 -0.137744 -4.97871 -2.49518 
1338 2 -0.0447658 -5.72222 -3.41551 
1928 2 0.773195 -5.64938 -2.72891 
1319 2 1.64646 -5.48905 -2.67562 
328 1 0.587445 -4.95247 -1.86868 
1528 2 2.26937 -5.06291 -3.22105 
2019 2 2.70491 -5.11153 -2.43247 
847 1 3.82962 -5.52566 -3.20468 
1765 2 3.95572 -4.57501 -2.51907 
542 1 4.58359 -5.46052 -2.81859 
182 1 5.2019 -5.13686 -2.21393 
284 1 5.05539 -4.90033 -3.28734 
280 1 -5.22594 -4.39993 -2.87695 
1201 2 -5.32593 -3.40712 -2.61696 
1387 2 -5.62983 -4.0023 -1.71461 
411 1 -3.60369 -3.97575 -2.47957 
504 1 -3.19105 -3.54207 -2.95388 
1079 2 -1.95489 -4.32397 -3.11192 
246 1 -2.70761 -3.85168 -2.15766 
753 1 -2.33741 -3.19751 -2.94375 
677 1 -1.66857 -3.25118 -2.30522 
1452 2 -0.959923 -4.09855 -2.50686 
1280 2 -0.211508 -3.93449 -2.25004 
1580 2 0.648541 -3.60452 -2.17942 
1457 2 -0.212602 -3.45982 -3.06048 
1991 2 0.46281 -3.11984 -3.0569 
107 1 0.748603 -4.52218 -2.61327 
661 1 1.57427 -4.47495 -2.28658 
20 1 2.00412 -4.10105 -3.02135 
550 1 2.85964 -3.85286 -2.54749 
1563 2 3.27421 -4.693 -3.11403 
928 1 4.02999 -3.46998 -2.04617 
137 1 3.58335 -3.47114 -2.8094 
1817 2 5.71247 -3.79209 -2.4458 
1521 2 4.59368 -4.1031 -2.4624 
1545 2 -4.5723 -3.03215 -2.77901 
636 1 -5.31891 -2.2061 -3.0571 
592 1 -5.0112 -2.29372 -2.22401 
734 1 -5.91957 -2.60105 -2.36786 
2007 2 -3.59514 -2.7311 -2.65096 
1400 2 -4.09013 -3.23281 -2.00755 
1289 2 -3.06812 -2.99573 -1.78261 
1052 2 -2.60851 -2.36839 -2.37923 
1537 2 -2.20418 -1.95366 -3.07069 
388 1 -1.35338 -2.86922 -2.90754 
1682 2 -1.71526 -2.20085 -2.08907 
573 1 0.0406482 -2.68446 -1.63265 
11 1 -0.535246 -2.71166 -2.29112 
287 1 0.163243 -2.11694 -2.62695 
1982 2 1.3399 -2.74935 -3.36305 
1738 2 2.05742 -2.719 -2.84927 
1263 2 1.33583 -3.19495 -2.54603 
1533 2 2.57381 -2.31619 -3.53332 
1123 2 3.10845 -2.57511 -2.72177 
1066 2 2.46063 -2.9353 -2.04077 
914 1 3.36043 -3.16443 -3.57062 
1973 2 4.10926 -2.25595 -2.38508 
1030 2 4.11836 -1.88222 -3.2355 
754 1 4.33496 -3.06841 -2.71022 
311 1 5.13868 -2.94011 -2.23694 
296 1 5.01145 -2.60462 -3.06438 
1826 2 -5.28847 -0.904617 -3.18109 
1946 2 -5.31818 -1.16765 -1.98979 
1792 2 -4.7462 -0.949497 -2.5487 
291 1 -4.57494 -1.75372 -3.17911 
767 1 -3.23784 -1.18035 -3.0757 
848 1 -3.88574 -1.67434 -2.55629 
704 1 -2.22481 -0.956784 -2.49276 
37 1 -1.53196 -1.04325 -1.99727 
117 1 -2.96452 -1.42593 -2.24068 
1086 2 -0.717594 -1.82331 -1.89146 
1781 2 -1.2081 -1.77684 -2.55312 
1635 2 -0.635983 -1.42141 -3.11812 
1517 2 -0.123662 -1.27783 -2.38746 
1456 2 0.480693 -0.833484 -2.84082 
998 1 1.49213 -1.96612 -2.56842 
427 1 0.961766 -1.7226 -3.16689 
2027 2 1.17272 -1.06487 -2.3057 
1832 2 1.90075 -0.491978 -2.47576 
705 1 2.35592 -1.41351 -2.89668 
640 1 3.18458 -1.15061 -2.94275 
106 1 2.81228 -1.64385 -2.27525 
1568 2 2.22906 -0.793432 -1.77995 
125 1 3.57078 -1.37017 -1.96348 
1350 2 4.86407 -1.69231 -2.76931 
1641 2 -5.91269 -1.3682 -2.66128 
1279 2 5.37643 -1.71644 -2.10465 
867 1 4.98748 -0.785452 -2.13275 
692 1 -4.77918 0.588376 -2.98692 
654 1 -5.07543 0.139362 -2.10357 
297 1 -5.53691 0.0110834 -2.77611 
824 1 -4.19786 0.451361 -2.41471 
2035 2 -4.13004 -0.469301 -2.82967 
1589 2 -3.62594 -0.600214 -2.1313 
1206 2 -2.89304 -0.098476 -2.44031 
898 1 -1.10733 -0.505446 -2.6328 
234 1 -1.77153 -0.587941 -3.13779 
1834 2 -2.17488 0.368959 -2.78492 
1104 2 -0.813965 0.780009 -2.7954 
1761 2 -1.39761 0.377359 -2.31545 
625 1 0.189722 0.00884481 -2.43824 
499 1 -0.467195 -0.181512 -3.04723 
776 1 1.15826 0.169739 -2.3088 
963 1 1.73267 0.723683 -2.8649 
2008 2 3.19379 0.167149 -3.18656 
1502 2 2.21658 -0.176955 -3.22744 
1696 2 2.7185 -0.200847 -2.56708 
846 1 4.16778 -0.920602 -2.6404 
1320 2 3.74042 0.150419 -2.21133 
1952 2 4.54451 0.117049 -1.98482 
1953 2 4.00922 0.412962 -3.01445 
334 1 4.90392 -0.49751 -3.0127 
241 1 5.71042 -0.303977 -2.23918 
1858 2 4.75044 0.653608 -2.60938 
1220 2 5.37169 0.701412 -2.00825 
1986 2 -5.22638 1.50052 -2.79919 
1720 2 -4.64931 1.94983 -3.40132 
1724 2 -4.7929 1.30507 -2.05834 
1282 2 -4.23242 1.86542 -2.54654 
613 1 -3.82309 0.957068 -2.98108 
164 1 -3.1277 1.32672 -3.07982 
259 1 -2.51093 1.22528 -2.48021 
94 1 -3.15903 0.804502 -2.00894 
489 1 -1.90507 1.71267 -3.13992 
189 1 -1.32677 1.63388 -2.5973 
1386 2 -0.03415 1.16927 -2.74811 
2022 2 -0.0499976 0.909457 -1.99023 
1893 2 0.643058 1.52334 -2.96983 
1838 2 1.44656 1.67944 -2.69512 
1340 2 1.85295 2.11714 -3.41659 
464 1 2.48982 0.877084 -2.816 
1967 2 1.89868 1.67817 -1.90905 
1017 1 3.28877 1.12821 -2.18693 
874 1 3.11165 1.32346 -3.00158 
232 1 3.88958 1.53214 -2.70569 
1654 2 5.24195 1.05757 -3.25965 
1803 2 -5.94102 1.01832 -2.63497 
194 1 5.53849 1.95377 -2.19717 
811 1 -5.61198 2.38205 -2.42996 
926 1 -4.97019 2.79892 -2.89329 
369 1 -4.19945 3.2337 -3.0256 
276 1 -3.79151 3.18541 -2.19539 
516 1 -4.53388 2.88769 -2.13761 
1938 2 -3.47141 2.27708 -2.82185 
1415 2 -2.54547 2.53712 -2.98269 
1839 2 -2.72361 2.18333 -2.09391 
1689 2 -0.973345 3.02991 -2.52489 
1476 2 -1.72275 2.50817 -2.03518 
719 1 -0.652634 2.1293 -3.04745 
585 1 -0.0869258 2.16727 -2.41046 
1756 2 -0.166586 3.13944 -2.0839 
134 1 0.487691 2.77923 -2.82712 
937 1 1.38236 3.00227 -2.98583 
896 1 2.0706 3.00161 -2.39809 
945 1 1.13275 2.58499 -2.20413 
1642 2 2.25153 1.95045 -2.75314 
448 1 3.04242 3.42424 -2.55048 
1522 2 3.7201 2.87421 -3.36466 
1461 2 3.11239 2.19289 -2.41919 
1994 2 3.94336 2.46017 -2.49311 
381 1 5.70931 2.33479 -3.10973 
944 1 4.85913 1.77446 -2.65557 
1333 2 5.30861 3.31953 -2.7677 
1105 2 4.80761 2.77634 -2.23492 
1072 2 -5.87477 3.37665 -2.10581 
355 1 -5.89487 4.53142 -1.8812 
1419 2 -4.95216 3.73786 -2.28941 
1527 2 -5.63608 3.68338 -2.93783 
1971 2 -4.63429 4.12921 -3.05837 
1275 2 -3.84167 4.5459 -3.10129 
1325 2 -4.01292 4.15883 -2.28778 
989 1 -3.19123 3.48926 -2.71169 
772 1 -2.01222 3.87239 -2.86688 
1601 2 -3.05631 4.41142 -2.08178 
733 1 -1.02247 4.38813 -2.73351 
1304 2 -0.587419 3.43434 -3.28055 
1616 2 -0.0673206 3.59394 -2.72343 
836 1 -0.343551 4.61697 -2.56087 
1981 2 1.07533 3.88135 -2.84715 
1997 2 1.55953 3.96414 -2.06823 
1854 2 1.89627 4.35441 -3.0979 
394 1 2.17063 3.31489 -3.32323 
835 1 3.4136 3.78524 -3.1643 
1428 2 2.27687 4.21548 -2.44053 
262 1 4.20874 3.97576 -3.09341 
552 1 3.73683 3.51268 -2.24678 
432 1 4.64152 3.90136 -2.37842 
166 1 5.44888 4.26821 -2.36966 
993 1 -5.43139 5.37487 -3.70273 
579 1 -5.75334 4.82563 -2.9408 
1918 2 -5.60157 5.63916 -1.96537 
952 1 -5.14497 4.75163 -2.22383 
1489 2 5.8148 5.7239 -2.64233 
589 1 -4.87225 5.1801 -2.99759 
1008 1 -3.15789 5.75199 -2.79097 
119 1 -3.97419 5.25081 -2.31224 
1957 2 -2.99272 4.68899 -2.98923 
1339 2 -2.25166 4.79583 -2.39891 
568 1 -0.690165 4.77959 -3.44054 
1236 2 -1.8472 5.21684 -3.11049 
1571 2 -1.02863 5.43326 -2.34308 
1029 2 -1.04775 5.77201 -3.25425 
564 1 0.0789225 4.988 -3.45008 
1818 2 -0.278383 5.79716 -2.70557 
1742 2 0.186202 5.7106 -2.03506 
652 1 0.861033 5.24513 -3.42178 
736 1 0.573923 4.76961 -2.6429 
490 1 1.41408 4.99591 -2.31726 
41 1 1.73955 5.35172 -2.97502 
422 1 3.17361 5.89328 -2.85466 
1126 2 3.06546 4.69681 -2.52461 
461 1 2.41266 5.52613 -2.48109 
1714 2 3.62692 5.05343 -3.21608 
1318 2 4.79943 5.38019 -2.7554 
1090 2 4.13877 4.79838 -2.48608 
586 1 3.72698 5.91213 -2.16179 
1604 2 5.40107 5.92591 -3.26885 
370 1 5.10343 4.5896 -3.21318 
2000 2 5.21651 5.4112 -2.04141 
724 1 -5.06414 -5.11187 -1.08595 
1404 2 -3.59866 -5.51822 -1.39209 
248 1 -4.38427 -5.16669 -0.489148 
1047 2 -2.065 -4.8316 -1.67825 
1783 2 -2.83107 -5.24634 -1.35437 
337 1 -0.967318 -5.71475 -1.3423 
1106 2 -1.53105 -4.91056 -1.03516 
147 1 -0.251385 -5.29333 -1.69099 
678 1 -0.198217 -5.59098 -0.901444 
245 1 0.509613 -5.2033 -0.94795 
249 1 1.25763 -4.69091 -1.48131 
1984 2 1.17596 -5.87659 -1.97785 
569 1 2.20955 -4.57802 -1.04169 
1199 2 2.10955 -5.50405 -1.81961 
2004 2 3.47163 -5.05903 -1.88306 
1828 2 2.84288 -5.52257 -1.41107 
1530 2 4.32171 -4.69454 -1.62691 
1749 2 3.72366 -5.31762 -1.01022 
1013 1 4.60754 -5.74725 -1.73463 
452 1 5.94033 -5.21759 -1.72654 
802 1 5.26368 -5.72932 -1.06576 
2017 2 4.85302 -4.79634 -0.888272 
1217 2 -4.73051 -3.88799 -1.23924 
1131 2 -5.20374 -4.15707 -0.562524 
1948 2 -4.96697 -3.49598 -1.98665 
798 1 -4.45451 -4.68913 -1.76551 
366 1 -3.98081 -4.69225 -1.03415 
1857 2 -3.99313 -3.83308 -0.418651 
21 1 -3.45894 -4.30537 -1.68816 
1442 2 -3.78593 -3.33254 -1.28761 
71 1 -2.0852 -3.67047 -1.67432 
844 1 -2.6408 -4.12707 -1.18419 
816 1 -1.87032 -4.02056 -0.745522 
324 1 -0.981848 -3.08689 -1.85713 
986 1 -1.2826 -3.51822 -1.19483 
634 1 -0.912952 -3.69065 -0.409726 
1878 2 -1.11396 -4.43818 -1.67475 
1613 2 -0.516777 -4.40138 -1.16238 
1896 2 0.0833171 -4.05401 -1.5413 
1894 2 1.04664 -3.70725 -1.27367 
1923 2 1.73659 -3.34416 -1.86211 
286 1 3.00885 -4.17954 -1.2941 
1019 1 2.33358 -4.19952 -2.0393 
1985 2 2.02263 -3.52399 -1.13059 
605 1 4.81695 -3.37282 -1.627 
385 1 3.41235 -3.80692 -1.82582 
522 1 4.0729 -3.84808 -1.16565 
1767 2 5.30343 -4.39963 -1.64207 
2002 2 -5.88831 -4.33589 -1.05535 
314 1 5.37652 -3.42437 -1.10601 
275 1 -5.01691 -2.78697 -1.35847 
285 1 -4.12072 -2.05789 -1.88942 
58 1 -4.09131 -2.45283 -0.944366 
1505 2 -2.31561 -2.70952 -1.46796 
1449 2 -2.99692 -3.23303 -0.874273 
1391 2 -2.14865 -2.76492 -0.623315 
1069 2 -1.44255 -2.35323 -1.30922 
526 1 -0.437466 -3.23502 -1.06754 
1808 2 -0.745533 -2.17879 -1.01804 
347 1 0.655842 -2.7895 -1.02354 
1819 2 0.0256585 -1.79385 -1.24166 
566 1 0.763114 -2.43789 -2.1119 
211 1 1.32501 -2.31588 -1.49268 
1947 2 2.88917 -3.14543 -1.02631 
199 1 2.49727 -2.04746 -1.16172 
377 1 2.10184 -1.92043 -1.96562 
1708 2 3.24795 -2.81784 -1.80386 
1787 2 4.03897 -2.66784 -1.30188 
1492 2 3.69894 -3.05186 -0.552101 
213 1 -5.82287 -3.07717 -1.65397 
1698 2 4.63368 -2.13516 -1.71984 
1978 2 5.32563 -2.25602 -1.18782 
1028 2 4.58968 -2.61941 -0.63026 
1167 2 -5.90569 -1.77546 -1.45876 
1587 2 -5.26399 -1.78448 -0.749134 
1299 2 -4.66898 -1.45528 -1.3022 
1972 2 -4.26368 -0.90008 -1.74232 
1025 2 -3.7097 -1.02221 -1.03194 
917 1 -3.35386 -2.00276 -1.59632 
548 1 -2.36069 -1.48277 -1.6238 
59 1 -0.876406 -0.912075 -1.3277 
468 1 -0.734963 -1.16727 -0.571239 
683 1 -1.67289 -1.39614 -1.0307 
799 1 0.0240807 -0.610808 -1.09481 
1916 2 0.568312 -1.18507 -1.68365 
1360 2 1.39472 -1.00946 -1.49424 
2046 2 0.953199 -1.55122 -0.889552 
691 1 3.18732 -1.91485 -1.45519 
1897 2 2.89023 -0.895273 -1.20214 
1831 2 2.12972 -1.08752 -0.933058 
626 1 4.47647 -1.06612 -1.52775 
962 1 3.88938 -1.63777 -1.14286 
198 1 4.85081 -1.4182 -0.733278 
279 1 5.46884 -0.764347 -1.45685 
737 1 5.83692 -0.918219 -0.723513 
958 1 -5.16495 -0.545023 -0.66218 
518 1 -5.57151 -0.389443 -1.51547 
912 1 -3.84843 0.397095 -1.68601 
876 1 -4.61283 -0.033741 -1.40569 
472 1 -3.9125 -0.0375429 -0.703682 
1432 2 -3.12029 -0.57374 -1.50163 
921 1 -3.08873 0.411631 -1.09136 
1098 2 -2.24922 -0.469159 -0.918773 
2043 2 -2.28518 -0.117877 -1.81119 
1067 2 -1.51143 -0.0208596 -1.50024 
1735 2 -0.789632 0.485567 -1.78311 
1323 2 -0.787308 0.138778 -0.865618 
630 1 -0.486513 -0.53301 -2.04567 
447 1 0.656836 -0.172007 -1.7023 
601 1 0.675955 -0.529296 -0.597529 
1213 2 -0.11102 0.529564 -1.16305 
160 1 1.61723 -0.017641 -1.1083 
886 1 1.89325 0.359365 -1.84475 
1314 2 3.10134 -0.366642 -1.79316 
243 1 2.67667 0.691314 -1.90494 
837 1 2.4933 0.205105 -1.01793 
1680 2 3.84128 -0.215887 -1.13482 
1758 2 3.49769 -0.805586 -0.573936 
1529 2 4.36727 -0.495001 -0.416101 
1468 2 5.78771 0.452275 -1.27166 
2030 2 4.93935 0.0458964 -1.12242 
1059 2 -4.89172 0.802466 -0.965536 
1508 2 -5.45129 0.936349 -1.78483 
16 1 -5.78973 1.78801 -1.46457 
2038 2 -4.19878 1.41936 -1.36429 
1229 2 -3.48723 1.34461 -0.793131 
1520 2 -3.46648 1.78971 -1.87788 
357 1 -2.42592 0.856241 -1.50395 
1170 2 -2.95915 1.73172 -1.27357 
397 1 -1.82195 1.26984 -1.95551 
919 1 -1.27666 1.38253 -1.38693 
303 1 -1.6742 0.873369 -0.9798 
115 1 -0.738931 1.75936 -1.80787 
660 1 -0.0433271 1.69504 -1.16798 
1297 2 0.830707 1.20919 -2.06402 
1860 2 0.802543 0.829488 -1.37507 
1944 2 1.53651 1.27424 -1.27394 
1726 2 1.93895 0.991223 -0.4975 
1158 2 2.54528 1.41374 -1.04849 
1368 2 2.67477 1.92182 -1.85789 
84 1 3.15691 0.615554 -1.18239 
1866 2 3.36793 1.92131 -1.10622 
104 1 3.96516 0.894011 -1.42539 
110 1 4.34885 1.33429 -1.94384 
920 1 5.18678 1.493 -1.25202 
783 1 4.55908 0.926591 -0.79951 
761 1 -4.96007 2.22459 -1.43347 
966 1 -4.31618 2.35106 -0.765584 
1330 2 -5.3676 3.24327 -1.45978 
322 1 -3.9672 2.61144 -1.54649 
323 1 -3.15041 2.95149 -1.55299 
460 1 -2.24122 3.22373 -1.42996 
1959 2 -2.20471 2.05646 -1.44976 
2021 2 -0.894686 2.69035 -1.51824 
1092 2 -1.44028 2.27102 -0.963426 
910 1 0.47594 1.99891 -1.62163 
1247 2 0.141761 3.01973 -1.27458 
2047 2 -0.282172 2.50492 -0.671987 
747 1 1.11436 2.19925 -1.14472 
828 1 2.84687 2.69153 -0.74032 
143 1 1.95831 2.72894 -1.55719 
181 1 2.87748 3.0219 -1.63177 
1026 2 4.54467 2.38988 -1.44245 
1686 2 3.75922 2.26921 -1.72832 
906 1 3.81554 3.29181 -1.43287 
1825 2 5.44472 2.94098 -1.5179 
1554 2 5.19648 2.40961 -0.805582 
974 1 -5.31656 4.49361 -1.29124 
506 1 -5.82652 4.08291 -0.743656 
679 1 -4.55199 4.48035 -0.81827 
1669 2 -4.38448 3.81308 -1.47437 
1287 2 -4.85148 3.2236 -0.799977 
1992 2 -3.48628 3.88669 -1.36103 
1853 2 -3.7544 3.48102 -0.573336 
26 1 -2.46441 3.37243 -2.11844 
1348 2 -2.72261 4.08779 -0.970115 
1344 2 -2.21709 4.48435 -1.5433 
1646 2 -1.77935 4.3558 -0.685735 
520 1 -1.74842 3.70602 -2.06958 
111 1 -1.33519 3.49517 -1.27693 
86 1 -0.960577 4.09809 -1.90409 
1679 2 0.683037 3.53901 -2.13109 
361 1 0.238806 4.5143 -1.83589 
418 1 -0.336545 4.03917 -1.45301 
187 1 0.946955 4.58778 -1.5453 
1107 2 1.01699 3.30387 -1.35532 
671 1 1.67105 4.68319 -1.15732 
1968 2 1.80085 3.69778 -1.23092 
1913 2 2.55348 4.03893 -1.61969 
1868 2 3.46856 4.36445 -1.83115 