ITEM: TIMESTEP
8100
ITEM: NUMBER OF ATOMS
2048
ITEM: BOX BOUNDS pp pp pp
-5.9267835029675906e+00 5.9267835029675906e+00
-5.9267835029675906e+00 5.9267835029675906e+00
-5.9267835029675906e+00 5.9267835029675906e+00
ITEM: ATOMS id type x y z 
1192 2 -4.79804 -4.67578 -5.12309 
825 1 -4.90526 -5.88402 -4.51482 
1272 2 -5.59948 -5.07179 -4.96768 
412 1 -5.01251 -5.83118 -5.40052 
554 1 -4.15808 -5.27914 -5.70919 
14 1 -4.13526 -5.52822 -4.8609 
3 1 -3.46591 -5.01555 -5.56867 
1138 2 -2.25876 -5.76782 -5.5381 
91 1 -2.5181 -4.77992 -5.39316 
247 1 -2.20373 -4.85674 -4.55497 
333 1 -3.2324 -5.17805 -4.62754 
1291 2 -1.74509 -5.77142 -4.85114 
1429 2 -1.03888 -5.49577 -4.71372 
1035 2 -1.28078 -5.31253 -5.68399 
1746 2 -0.376454 -4.97304 -5.4652 
1709 2 0.698641 -4.79983 -4.92593 
135 1 0.799379 -5.80836 -5.62076 
857 1 1.52816 -5.48364 -5.29574 
434 1 2.32229 -5.00118 -5.78717 
1823 2 2.94334 5.82907 -5.42612 
64 1 2.39973 -5.33696 -4.82352 
481 1 3.0253 -4.67443 -5.43966 
1677 2 4.13983 -5.30739 -5.82237 
1846 2 3.7374 -5.72836 -5.06578 
809 1 3.29119 -5.00849 -4.5192 
1799 2 5.64922 -5.00458 -5.47732 
1875 2 5.07616 -5.44275 -5.07404 
1849 2 -5.49551 -4.67169 -5.71896 
273 1 -5.33177 -3.68585 -5.31805 
1633 2 -4.6156 -4.38563 5.7968 
1548 2 -4.10155 -4.14466 -5.39346 
991 1 -4.60152 -3.2675 -5.23963 
1663 2 -3.26445 -3.87569 -5.4952 
1046 2 -2.48487 -3.4114 -5.81746 
1472 2 -2.32765 -3.65276 -5.00043 
902 1 -1.02574 -4.50662 -4.49923 
855 1 -1.57969 -4.39305 -5.2233 
924 1 0.123494 -3.60945 -5.67737 
467 1 0.00212115 -3.93104 -4.85418 
227 1 -0.727764 -4.00999 -5.32665 
1790 2 1.19053 -4.23367 -5.72305 
819 1 0.943204 -3.35976 -5.3742 
1737 2 1.56553 -4.64626 -4.87793 
1705 2 2.54235 -3.74376 5.79177 
1466 2 2.00288 -3.99452 -5.49687 
1483 2 3.22217 -3.44062 -5.69261 
1836 2 2.65141 -3.83337 -4.92567 
429 1 3.96408 -4.56017 -5.13179 
1995 2 3.55508 -3.65845 -4.55943 
1929 2 4.46267 -3.57482 -4.33307 
19 1 4.81023 -4.38452 -4.90254 
817 1 4.61615 -4.12572 -5.74968 
75 1 5.51316 -3.87772 -5.36821 
1937 2 -5.14226 -2.33569 -5.24401 
1657 2 -5.69616 -2.77584 -4.76136 
269 1 -4.20148 -2.81548 5.89197 
1465 2 -4.55706 -1.87933 -5.63879 
218 1 -3.79789 -3.00395 -5.147 
353 1 -3.29559 -2.56953 -5.78838 
391 1 -2.48092 -2.1428 -5.51873 
402 1 -2.91903 -2.72323 -5.08408 
151 1 -1.77694 -2.21221 -4.86747 
1231 2 -1.53409 -3.26143 -5.22727 
1763 2 0.857665 -2.37327 -4.80803 
1255 2 0.0917712 -2.56899 -5.35716 
1909 2 0.615313 -2.00999 -5.64507 
169 1 1.87077 -3.03197 -5.32747 
694 1 2.38341 -2.85926 -4.67423 
475 1 2.54986 -2.6178 -5.55458 
1129 2 3.97044 -3.35415 -5.42001 
939 1 3.32554 -2.5223 -5.02344 
904 1 4.27958 -2.23471 -5.00322 
136 1 3.48047 -2.09518 -5.76034 
1070 2 5.62508 -2.73547 -5.42273 
1475 2 4.88203 -3.08916 -5.40498 
214 1 -4.7094 -1.10955 -4.92725 
543 1 -5.55894 -1.55282 -4.87004 
730 1 -4.86263 -0.906196 -5.79374 
55 1 -4.12563 -0.53645 -5.34892 
1341 2 -3.72535 -1.50146 -5.74155 
505 1 -3.76158 -0.83613 -4.64318 
1745 2 -3.70598 -1.83217 -5.11432 
1733 2 -2.94227 -1.34513 -5.07012 
1809 2 -2.27653 -1.03833 -5.69041 
1569 2 -1.7154 -0.911747 -5.09428 
387 1 -1.29673 -1.71321 -5.46831 
595 1 -0.433222 -1.62761 -5.05906 
35 1 0.165782 -1.09659 -5.30177 
8 1 1.19974 -1.05258 -4.65947 
1555 2 1.50593 -2.00967 -5.07189 
1964 2 2.3 -1.56404 -5.59447 
1190 2 2.43565 -1.62536 -4.74473 
1202 2 2.98556 -1.03955 5.90958 
1775 2 3.24689 -1.37669 -5.02182 
1363 2 3.9414 -0.975742 -5.63821 
485 1 4.3283 -1.86796 -5.85211 
25 1 5.15957 -1.82018 -5.21814 
308 1 5.11064 -1.58257 5.76346 
771 1 5.87576 -1.38167 -5.56843 
2036 2 4.99744 -0.847016 -4.78785 
1830 2 -5.40311 -0.0857478 -5.37396 
2028 2 -4.42376 0.342902 -5.26747 
1343 2 -3.87065 0.944181 -5.56592 
749 1 -2.3552 -0.0762789 -4.91568 
701 1 -3.03376 -0.438889 -4.67536 
374 1 -2.37884 0.33801 -5.87549 
859 1 -3.16885 -0.152526 -5.50325 
234 1 -1.27731 0.249413 -4.58408 
212 1 -1.56429 0.411839 -5.47033 
1867 2 -0.753276 -0.658115 -4.83223 
1414 2 -1.32913 -0.538963 -5.75754 
1478 2 0.0877889 -0.20913 -4.75831 
1573 2 0.383627 0.156787 -5.62255 
1572 2 -0.468171 -0.264767 -5.56258 
578 1 1.01081 -0.686246 -5.49284 
1963 2 1.4205 0.567 -5.76211 
1223 2 0.961349 0.12416 -4.95649 
31 1 1.82908 -0.635788 -5.38229 
1180 2 1.90826 0.369493 -4.98391 
560 1 2.62763 -0.272092 -5.40279 
866 1 3.57153 -0.0371437 -5.26602 
700 1 4.2209 0.522689 -5.69975 
116 1 4.53421 0.274498 -5.0251 
1224 2 4.86341 -0.641979 -5.65212 
1623 2 5.62644 -0.421751 -5.16445 
469 1 5.51424 0.543954 -4.9148 
915 1 -5.27919 0.949043 -5.02529 
420 1 -5.35512 1.4119 -5.8422 
697 1 -4.6091 1.05283 -4.54117 
1643 2 -3.29615 0.627671 -4.93219 
338 1 -4.49034 1.67153 -5.47197 
980 1 -3.91053 1.65846 -4.78947 
1443 2 -2.8722 1.1974 -5.67495 
1576 2 -1.86134 1.46427 -5.44063 
1050 2 -2.58933 1.03584 -4.81164 
827 1 -0.722875 0.686579 -5.21029 
1063 2 -1.1414 1.66636 -5.0374 
842 1 0.199784 0.969668 -5.03057 
1639 2 -0.467353 2.14881 -5.44828 
156 1 0.557383 1.36658 -5.80863 
408 1 1.10869 1.627 -5.26 
895 1 2.093 1.83692 -5.34224 
80 1 0.802683 0.970009 -4.47238 
1785 2 2.66664 0.873007 -5.47054 
1852 2 2.09709 0.959583 5.82537 
1882 2 3.40462 1.24641 -5.6647 
1226 2 4.04432 1.20537 -4.89494 
1910 2 3.16593 0.726238 -4.69647 
1463 2 4.33908 1.75479 -5.71367 
302 1 5.05132 0.665286 -5.63854 
1204 2 4.8568 1.49902 -4.9854 
1431 2 -5.23314 2.34858 -5.23433 
1716 2 -4.77292 2.74313 -5.60584 
1654 2 -4.58526 2.55251 -4.63742 
1403 2 -5.80466 2.28368 -5.80245 
752 1 -3.66067 2.12725 -5.80784 
1620 2 -3.97371 2.93214 -5.30914 
820 1 -3.03958 1.94363 -4.98649 
1015 1 -2.25245 2.28897 -5.05521 
1877 2 -3.09492 3.06033 -5.05986 
264 1 -2.72597 2.56235 -5.88492 
719 1 -1.49846 2.65607 -4.74325 
494 1 -1.04441 3.12772 -5.1495 
28 1 -1.74683 2.93923 -5.69453 
852 1 -0.454826 2.90966 -4.72229 
1683 2 0.573038 2.4353 -4.93782 
1884 2 0.294672 2.55484 -5.7329 
1506 2 1.33067 2.7198 -5.30741 
621 1 2.95193 2.24296 -5.2938 
1214 2 2.23215 2.91297 -5.1046 
1769 2 3.07656 3.34204 -5.13575 
396 1 3.68308 2.45264 -5.25128 
445 1 4.68183 2.74092 -5.64088 
1396 2 5.47704 1.81605 -5.4038 
869 1 5.18704 2.59697 -4.85523 
188 1 -5.55887 3.25906 -4.82864 
923 1 -4.65705 3.65322 -4.78339 
607 1 -4.52161 4.25633 -5.96484 
1349 2 -5.44631 4.45577 -4.87484 
644 1 -5.08731 3.63489 -5.522 
797 1 -3.94827 4.12948 -5.32615 
45 1 -3.3149 4.73565 -5.71583 
1142 2 -2.52481 3.5932 -5.36543 
250 1 -3.02929 4.48473 -4.86927 
1482 2 -3.23536 3.43654 5.88914 
1869 2 -1.98723 4.0499 -5.77111 
1824 2 -1.58762 3.95944 -4.87611 
1336 2 -0.679291 4.38755 -5.21028 
1926 2 0.180781 4.47756 -5.05242 
710 1 -0.181453 3.49921 -5.42843 
561 1 0.577918 3.39424 -4.92636 
72 1 0.742258 3.81783 -5.65654 
709 1 2.23453 4.09494 -4.80188 
310 1 1.44929 3.78544 -4.98384 
815 1 1.66812 4.20478 -5.66817 
716 1 2.88984 4.47016 -5.14159 
1130 2 2.79094 3.43335 -5.82344 
1274 2 3.66983 3.75991 -5.7375 
1073 2 4.22108 3.63283 -5.1038 
204 1 5.4976 3.13013 -5.37575 
1618 2 4.91472 4.06221 -5.3157 
1640 2 5.70916 4.40536 -5.38125 
407 1 -5.80699 5.72755 -5.20453 
1670 2 -5.36562 4.97003 -5.87511 
1048 2 -4.71033 4.80407 -4.96319 
1413 2 -3.94628 5.35131 -5.08083 
1353 2 -3.42451 5.69095 -5.75683 
1757 2 -2.89506 5.7476 -5.06781 
577 1 -2.39436 4.90769 -5.36536 
17 1 -1.48059 5.05787 -5.19116 
123 1 -0.590343 5.44193 -4.82316 
1354 2 0.444146 4.9068 -5.80819 
495 1 0.0477626 5.84462 -5.40843 
822 1 0.861648 -5.90278 -4.64894 
1039 2 1.0279 4.83386 -4.98097 
1193 2 1.92606 5.36641 -5.50354 
1033 2 1.2253 5.09133 -5.76251 
1847 2 2.58231 5.32961 -4.8078 
501 1 3.25716 4.82453 -5.75862 
653 1 3.73301 4.4877 -4.91461 
48 1 4.01541 5.17029 -5.50844 
662 1 4.51866 4.92619 -4.66441 
699 1 5.23448 5.30328 -4.98893 
486 1 4.81421 5.65244 -5.85346 
1418 2 -5.05734 -4.95754 -4.36913 
496 1 5.88192 -4.65929 -3.36872 
1358 2 -5.59352 -5.56571 -3.65156 
1079 2 -4.34342 -4.92837 -3.96091 
1008 1 -3.63349 -5.54848 -4.01937 
1807 2 -3.59382 -4.43471 -3.79952 
473 1 -4.2543 5.77599 -4.01922 
508 1 -3.04947 -5.63552 -3.36932 
805 1 -2.69753 -5.23382 -3.97187 
453 1 -1.48101 -4.91942 -3.82482 
1334 2 -1.34812 5.93748 -3.91986 
934 1 -0.69135 -4.70496 -3.42024 
1029 2 -0.296974 -5.71708 -3.83187 
1260 2 -0.142476 -5.22958 -4.60627 
1592 2 0.341843 -5.48498 -3.27539 
1486 2 0.595756 -5.12794 -4.0129 
673 1 1.71261 -5.80598 -4.3455 
1678 2 1.44644 -4.92426 -3.85994 
648 1 2.45462 -5.70735 -3.98494 
723 1 3.39925 -5.37674 -3.75433 
131 1 4.34097 -4.90685 -4.28547 
1013 1 4.22054 -5.24226 -3.48276 
1244 2 4.41868 -5.84738 -4.53827 
1604 2 5.72905 -5.5571 -4.39013 
1704 2 5.00385 5.7386 -3.88713 
878 1 -5.35511 -3.80161 -4.55402 
246 1 -4.64596 -3.9445 -3.49204 
798 1 -5.51318 -4.1853 -3.72856 
1477 2 -4.1433 -4.46609 -4.63764 
483 1 -4.42621 -3.42341 -4.4188 
1261 2 -3.19627 -4.0612 -4.53327 
524 1 -3.94086 -3.57563 -3.71032 
1452 2 -2.33535 -3.89154 -4.12783 
1402 2 -2.81473 -4.3844 -3.37516 
1602 2 -1.57202 -3.46929 -4.214 
2009 2 -1.74413 -3.9696 -3.45788 
1711 2 -0.807193 -3.38253 -4.00057 
326 1 -0.333434 -4.27315 -4.12367 
782 1 0.501613 -4.10851 -3.76021 
413 1 0.621161 -3.68898 -4.50657 
107 1 1.26097 -3.81293 -3.62746 
1198 2 2.00925 -4.29969 -4.40936 
1844 2 3.09499 -4.18746 -3.96067 
1082 2 2.28888 -4.74303 -3.52448 
2010 2 3.80819 -4.00926 -3.77044 
1563 2 3.09642 -4.44888 -3.08293 
1655 2 5.15529 -3.62299 -3.72704 
339 1 5.83037 -4.31354 -4.44328 
847 1 5.16303 -4.68588 -3.8964 
1911 2 -4.33018 -2.3323 -4.73231 
833 1 -5.8297 -1.84457 -3.74731 
1664 2 -5.04304 -2.68192 -4.25497 
1871 2 -4.4371 -2.63247 -3.60911 
1097 2 -3.73944 -2.25901 -4.04411 
1086 2 -3.34974 -2.20387 -3.24658 
664 1 -3.19503 -3.06291 -4.3333 
236 1 -2.95127 -3.26493 -3.44348 
196 1 -2.37428 -2.72473 -4.42768 
388 1 -2.24287 -2.81214 -3.62425 
657 1 -1.46909 -2.48693 -3.96796 
573 1 -0.986724 -2.54973 -3.31872 
1379 2 -0.60335 -3.08456 -4.89791 
1370 2 -0.151459 -3.44996 -3.42816 
1006 1 -0.363814 -2.08493 -3.84257 
1581 2 0.130493 -2.87311 -4.32116 
1645 2 0.523466 -3.07511 -3.18563 
122 1 1.46396 -3.36929 -4.50461 
1083 2 1.85258 -2.20279 -4.40404 
1982 2 0.887518 -2.61875 -3.93097 
1401 2 1.79401 -2.49043 -3.65743 
471 1 2.9884 -2.96292 -4.08123 
547 1 2.35946 -3.3176 -3.75305 
1259 2 2.56504 -1.97663 -3.88858 
277 1 3.80256 -2.71093 -4.22997 
602 1 3.56003 -3.12332 -3.36286 
999 1 4.46242 -2.9695 -3.33306 
2032 2 5.27874 -3.17664 -4.57783 
609 1 4.75826 -2.33223 -4.26344 
1201 2 -5.82597 -3.03344 -3.82584 
66 1 5.029 -2.46605 -3.47337 
717 1 -5.06618 -1.60282 -4.22186 
205 1 -4.97062 -1.8475 -3.33699 
848 1 -4.21709 -1.36073 -4.19078 
161 1 -4.11607 -1.31717 -3.36282 
767 1 -3.28441 -0.974494 -3.78455 
1271 2 -2.79469 -1.76281 -4.23626 
1908 2 -2.20271 -1.33311 -4.46991 
1635 2 -1.80241 -1.63649 -3.48637 
597 1 -0.959669 -2.15109 -4.56564 
1345 2 -1.22071 -1.16963 -4.24528 
367 1 0.326895 -1.94574 -3.27138 
11 1 0.474627 -1.50437 -4.39174 
1537 2 -0.338168 -0.896139 -3.95068 
1296 2 0.417647 -0.408981 -3.97602 
421 1 0.978115 -1.53514 -3.75953 
768 1 1.77183 -1.17532 -3.64619 
674 1 2.0522 -0.743403 -4.56014 
1030 2 3.30434 -1.75683 -4.31357 
106 1 2.75035 -0.930986 -3.6446 
2048 2 4.19165 -1.17809 -4.70324 
1167 2 4.03647 -1.69997 -3.91838 
740 1 5.56002 -1.92911 -4.44577 
1163 2 5.50851 -0.82815 -4.02615 
1110 2 4.72556 -1.31932 -3.9018 
2001 2 -5.58641 -0.72248 -4.32521 
1111 2 -5.26386 -0.743414 -3.50329 
1498 2 -4.95752 -0.226327 -4.57072 
872 1 -5.78358 0.564511 -4.33192 
1184 2 -3.80287 0.278789 -4.49734 
1834 2 -3.78809 0.124915 -3.65236 
1436 2 -4.46159 -0.259672 -3.88443 
704 1 -2.49357 -0.410638 -4.00864 
1736 2 -2.79588 0.593574 -4.13138 
1761 2 -3.04771 0.114498 -3.42655 
37 1 -1.78217 -0.118025 -4.16129 
799 1 -0.931796 0.00246035 -3.78332 
789 1 -0.413996 0.586129 -4.32037 
517 1 -0.270687 0.112339 -3.1883 
1456 2 1.30255 -0.417803 -3.32114 
1975 2 1.17608 -0.134495 -4.13255 
1412 2 1.963 0.161982 -3.89796 
640 1 2.90405 -0.584409 -4.51092 
1470 2 2.63435 0.405008 -4.17808 
1832 2 3.12921 -0.0145131 -3.22506 
1517 2 2.32467 -0.0786326 -3.10462 
846 1 3.95212 -0.271706 -4.49891 
427 1 3.6229 -0.756016 -3.69193 
1777 2 3.43708 0.390985 -3.80978 
199 1 4.53087 -0.34899 -3.72469 
715 1 4.96917 0.173872 -4.28481 
692 1 5.64665 0.119425 -3.68562 
278 1 -4.94535 0.684918 -3.96141 
1986 2 -5.35898 1.4476 -3.26176 
164 1 -3.52105 1.17131 -3.29144 
689 1 -3.97222 1.22557 -4.08093 
489 1 -3.21351 1.57694 -4.04493 
1550 2 -2.10613 0.668606 -3.5964 
686 1 -2.67908 1.56649 -3.2842 
1054 2 -1.77819 1.0809 -4.47262 
1149 2 -1.26985 1.00413 -3.48487 
134 1 -1.77981 1.91065 -3.18198 
1386 2 -0.841222 1.42768 -4.1598 
1310 2 0.166148 1.71765 -3.84848 
625 1 0.273812 0.625638 -3.78215 
254 1 1.68662 1.4029 -4.5644 
760 1 1.25368 0.976332 -3.76188 
1838 2 0.887307 1.76134 -3.34761 
380 1 2.47721 1.60137 -4.72705 
1011 1 2.38413 1.27313 -3.94608 
731 1 3.10747 1.31931 -3.40851 
894 1 3.26298 1.90288 -4.5641 
381 1 3.5858 1.85044 -3.93523 
2008 2 4.00856 0.821771 -4.16101 
1172 2 4.86873 1.17672 -4.31354 
1497 2 -5.8204 1.81953 -4.78471 
1068 2 5.67821 1.44523 -4.05859 
1953 2 4.82327 0.944334 -3.53612 
1377 2 -5.23087 1.88691 -4.1413 
369 1 -4.72604 3.03079 -3.12625 
631 1 -5.71267 2.64948 -3.52314 
1485 2 -4.37353 2.06975 -3.66091 
1728 2 -3.56171 2.79336 -4.34653 
1794 2 -3.64977 2.47652 -3.45017 
903 1 -2.39006 1.91342 -4.06169 
1625 2 -2.80909 2.85844 -3.97532 
1607 2 -2.12533 3.1706 -3.45781 
982 1 -0.84567 2.65988 -3.90161 
585 1 -1.48841 2.21374 -4.06344 
1364 2 -0.0621713 1.92007 -4.59587 
843 1 0.313979 2.93938 -4.11692 
397 1 -0.0525887 2.58829 -3.32272 
1628 2 1.55864 2.607 -4.42052 
2020 2 0.953212 2.03801 -4.17789 
1158 2 1.82209 2.04297 -3.55845 
885 1 0.75653 2.94537 -3.34935 
1999 2 2.34117 2.60996 -4.28271 
1522 2 3.15485 2.9599 -4.31118 
1562 2 3.51781 2.80458 -3.5903 
171 1 4.28234 2.29567 -4.59135 
1439 2 4.5084 3.15323 -3.5649 
232 1 4.42876 1.92701 -3.69947 
726 1 5.79275 2.75599 -4.30953 
702 1 4.87015 2.37919 -4.11455 
1575 2 -4.98046 4.40133 -3.93371 
676 1 -5.04956 3.13788 -4.00599 
1275 2 -5.76812 3.93583 -4.05765 
92 1 -4.26271 3.55916 -3.83318 
1957 2 -4.288 4.53368 -3.43643 
446 1 -3.68409 3.89822 -4.61966 
340 1 -2.72947 4.24747 -3.99512 
1175 2 -2.1642 3.34923 -4.44849 
772 1 -3.36632 3.76512 -3.59607 
1268 2 -1.4573 3.58656 -3.86573 
1689 2 -0.788171 3.91406 -4.41123 
612 1 -1.74823 4.49417 -3.60227 
1304 2 0.129016 4.15053 -4.29091 
1183 2 0.424761 3.83572 -3.36538 
1616 2 -0.428212 3.72632 -3.56598 
56 1 1.32203 3.51962 -4.26106 
896 1 1.73051 3.29546 -3.52407 
1161 2 1.04152 4.5609 -4.1422 
1372 2 1.2786 4.27765 -3.28653 
884 1 2.16492 3.71991 -4.09929 
183 1 2.83023 3.64348 -3.42542 
256 1 3.11553 4.04964 -4.23399 
2039 2 3.94463 3.2424 -4.36087 
835 1 3.9681 4.28666 -4.07847 
775 1 4.47945 4.28063 -3.35754 
1971 2 5.50519 3.86256 -4.61046 
1333 2 5.30856 3.44579 -3.5858 
1636 2 4.79468 3.56076 -4.40347 
435 1 -5.51745 5.41565 -4.47171 
918 1 -5.86061 4.98216 -3.60791 
346 1 -5.08893 5.39829 -3.68476 
1038 2 -4.08369 4.85828 -4.27963 
1236 2 -3.482 4.99493 -3.64864 
1526 2 -3.21213 5.36192 -4.50197 
1151 2 -2.28026 5.79139 -4.36598 
1329 2 -2.60984 5.2766 -3.72149 
82 1 -2.07514 4.74443 -4.52043 
568 1 -1.1821 4.89506 -4.18404 
1571 2 -1.91087 5.43003 -3.27756 
628 1 -0.389386 4.88295 -3.74385 
503 1 0.139453 5.50646 -4.51227 
564 1 0.453855 5.17859 -3.51324 
959 1 0.962554 5.63099 -3.87726 
1668 2 1.78059 5.06539 -4.60624 
2040 2 1.82599 4.6609 -3.79914 
575 1 1.8426 5.64578 -3.51752 
1955 2 2.6254 4.86749 -3.91093 
1093 2 2.59913 4.50483 -3.02827 
1667 2 3.41248 5.59105 -4.46337 
1691 2 3.37126 5.14012 -3.67361 
1489 2 4.08636 5.4665 -3.7663 
579 1 5.55998 4.88602 -4.25431 
443 1 4.84337 4.53563 -3.99788 
1425 2 4.63374 5.41692 -3.16051 
262 1 5.30575 4.53484 -3.20471 
1394 2 -5.52305 -5.80203 -2.55412 
1197 2 -4.81734 -5.36839 -3.11423 
1822 2 -4.64979 -5.62441 -2.15195 
1047 2 -3.93718 -5.03677 -3.12193 
1404 2 -3.92602 -5.22001 -2.25306 
1783 2 -3.16461 -4.77662 -2.69617 
260 1 -2.60298 -5.72261 -2.57149 
1531 2 -2.76687 -4.82157 -2.08505 
274 1 -2.04971 -5.43579 -3.20823 
337 1 -1.17075 -5.09781 -2.8014 
954 1 -1.88721 -5.64509 -2.05809 
5 1 0.155888 -4.50961 -2.90859 
147 1 -0.385545 -5.03444 -2.47471 
661 1 0.715157 -4.79786 -2.30477 
1818 2 -0.169911 5.82053 -2.6866 
1742 2 1.24064 -5.27395 -3.21385 
1747 2 0.810525 -5.77347 -2.50472 
1503 2 1.70335 -5.61512 -2.10014 
1319 2 1.98744 -5.23679 -2.79938 
1887 2 2.85011 -5.01669 -2.56226 
57 1 4.38153 -5.52334 -2.76215 
1194 2 3.64146 -4.81484 -2.50499 
49 1 3.46977 -5.83404 -2.92309 
666 1 5.03551 -4.94493 -3.11621 
955 1 5.07946 -5.29238 -2.20307 
284 1 -5.77638 -4.83387 -2.43593 
1400 2 -5.45307 -3.58669 -2.40679 
411 1 -5.11676 -4.54144 -2.80748 
864 1 -4.61687 -4.5218 -1.89001 
366 1 -4.22303 -4.1413 -2.70825 
599 1 -3.50315 -3.95276 -2.14269 
1106 2 -2.20365 -4.28209 -2.73141 
313 1 -3.35722 -3.62563 -2.82665 
71 1 -2.4427 -3.40289 -2.59732 
1280 2 -0.873007 -3.76369 -3.07066 
1843 2 -1.3163 -4.16087 -2.51521 
51 1 -1.66492 -3.29036 -1.97043 
1896 2 -0.625624 -4.12352 -2.00317 
1878 2 -0.123435 -3.58259 -2.59517 
328 1 1.05402 -4.257 -2.87107 
1848 2 0.688193 -3.3617 -2.41375 
321 1 1.99734 -3.80437 -3.15057 
1263 2 1.47016 -3.43186 -1.92992 
938 1 1.62571 -4.26203 -2.33289 
403 1 2.84388 -3.45491 -2.93682 
914 1 2.53082 -3.98898 -2.30262 
1521 2 3.87671 -4.24615 -3.03495 
754 1 3.3623 -3.8554 -1.9104 
1001 1 3.56815 -3.36544 -2.50379 
1240 2 4.68916 -4.07895 -3.03082 
1767 2 5.73826 -3.56304 -2.97343 
1765 2 4.43951 -4.42184 -2.15307 
2002 2 5.4406 -4.07821 -2.22122 
1817 2 -5.10372 -3.03464 -3.38209 
1924 2 -4.70287 -3.06607 -2.65172 
968 1 -5.41915 -2.37684 -2.51887 
2007 2 -3.86463 -2.72775 -2.90971 
636 1 -4.82227 -1.87044 -2.57173 
1505 2 -2.93301 -2.51213 -2.32267 
1391 2 -2.1369 -2.12696 -2.57786 
753 1 -1.67243 -3.11451 -2.97111 
677 1 -0.756728 -2.66765 -2.36692 
526 1 -0.351904 -2.34643 -2.93233 
1457 2 1.2179 -2.88198 -3.1228 
211 1 0.833203 -2.15355 -2.54208 
1676 2 2.52976 -2.42617 -3.11973 
1533 2 1.77879 -2.98999 -2.53234 
1326 2 2.62313 -2.63119 -2.25806 
140 1 4.50013 -3.25914 -2.3635 
1350 2 4.16482 -1.96347 -3.05324 
1973 2 3.43662 -2.11905 -3.15892 
1123 2 3.46581 -2.40318 -2.34733 
291 1 5.89287 -2.33535 -3.11239 
213 1 5.88603 -2.7178 -1.90302 
784 1 5.27627 -2.73284 -2.48539 
1279 2 4.43522 -2.11354 -2.18284 
2035 2 -5.15762 -0.838559 -2.62209 
1972 2 -4.70779 -1.06254 -1.83909 
592 1 -3.96073 -1.73476 -2.55833 
1589 2 -4.05354 -0.71084 -2.31737 
285 1 -3.27465 -1.72688 -1.74322 
58 1 -3.17527 -1.16187 -2.85135 
1682 2 -2.64975 -1.96659 -3.3558 
917 1 -2.52693 -0.843447 -3.27473 
449 1 -2.64917 -1.23785 -2.23254 
1781 2 -1.02672 -1.32669 -3.21541 
630 1 -0.931996 -0.405117 -2.33817 
1808 2 -1.49263 -1.6849 -2.63943 
117 1 -1.95732 -0.796955 -2.50503 
1870 2 -0.708798 -1.39724 -2.43431 
1069 2 -0.285756 -1.03051 -3.11235 
1644 2 0.504716 -0.859504 -3.10834 
1057 2 0.183792 -1.39989 -2.22539 
1819 2 0.972175 -0.974775 -2.35194 
287 1 1.38404 -1.70445 -3.0537 
215 1 1.64632 -2.02813 -2.20562 
581 1 2.24178 -1.48858 -2.81524 
839 1 2.45019 -1.60438 -1.95079 
125 1 3.23235 -1.30622 -2.64052 
377 1 4.15743 -0.731343 -3.01456 
626 1 3.88621 -1.19496 -2.03835 
1754 2 4.90177 -1.54823 -3.04705 
1962 2 -5.8242 -1.39532 -2.4677 
1346 2 5.73113 -1.10752 -3.2076 
334 1 4.73252 -0.888993 -1.92764 
297 1 -4.97901 0.341064 -2.62181 
190 1 -5.39201 0.240884 -3.35469 
1876 2 -4.41728 -0.420262 -2.94791 
1098 2 -3.50432 -0.149554 -2.75778 
32 1 -4.47006 0.789811 -3.2287 
1206 2 -2.50367 0.212454 -2.65157 
1432 2 -2.98204 -0.200581 -2.01543 
419 1 -1.74957 -0.429187 -3.3288 
898 1 -1.05589 -0.273912 -3.036 
499 1 0.123474 -0.0928669 -2.4284 
594 1 0.686016 0.302665 -2.94199 
464 1 1.0971 0.159115 -2.04021 
783 1 1.90847 0.380752 -2.09165 
1916 2 1.65414 -0.579369 -2.61173 
886 1 1.53024 0.653573 -2.98627 
1360 2 2.77739 -0.287396 -2.46404 
50 1 2.74074 0.715291 -2.30374 
1673 2 4.23414 0.52015 -3.26731 
2027 2 3.69526 0.131617 -2.59717 
241 1 5.87791 -0.0967037 -2.78952 
109 1 5.02719 -0.411168 -2.82189 
1724 2 5.69386 0.851286 -2.36003 
1132 2 -4.62489 1.71779 -2.91506 
1512 2 -4.59628 1.3772 -1.76714 
1720 2 -5.31321 1.21699 -2.28894 
900 1 -4.11029 0.678472 -2.50247 
1938 2 -3.77506 2.00646 -2.69639 
613 1 -3.24266 1.08441 -2.52522 
189 1 -1.90411 1.41055 -2.48657 
94 1 -2.59794 1.06657 -1.98204 
2022 2 -1.69646 0.484853 -2.90895 
115 1 -1.12093 1.85234 -2.30521 
1104 2 -0.837176 0.791675 -2.77731 
1187 2 -0.522347 1.38828 -3.275 
1340 2 0.402364 1.33575 -2.83328 
1860 2 1.61282 1.68914 -2.59012 
1021 1 2.35808 0.933616 -3.1146 
492 1 3.44442 1.01108 -2.54587 
1642 2 2.44932 1.90714 -2.87006 
1786 2 2.66155 1.71473 -1.95433 
874 1 3.93606 1.68691 -3.19689 
1017 1 4.24394 1.36928 -2.29549 
1952 2 4.88643 0.590958 -2.67002 
1858 2 5.62617 1.23496 -3.31444 
104 1 4.77879 1.85368 -2.8251 
194 1 -5.27826 2.48598 -2.76712 
276 1 -4.32818 2.78909 -2.18514 
1520 2 -2.99141 2.15194 -2.18179 
1415 2 -3.01611 2.61078 -3.00189 
1959 2 -2.15416 2.78167 -2.65921 
1476 2 -1.33402 3.33679 -2.87448 
208 1 -0.881363 2.30453 -3.05966 
2021 2 -1.40065 2.86355 -2.13863 
301 1 -0.38568 2.21438 -2.38154 
76 1 0.433629 2.4291 -2.57628 
1107 2 -0.582145 3.10087 -2.04919 
1974 2 0.18255 3.18739 -1.73799 
143 1 1.44386 2.45526 -2.0708 
478 1 1.35171 2.78654 -2.80678 
510 1 2.15913 2.95218 -2.73925 
1461 2 2.79791 2.43985 -3.40066 
1330 2 3.30544 2.22778 -2.42341 
379 1 2.25783 2.7871 -1.9349 
1026 2 4.15283 2.63237 -2.7943 
811 1 5.37478 2.34676 -3.51854 
1994 2 4.9274 3.01767 -2.80786 
7 1 5.7174 2.29029 -2.67532 
1825 2 5.72552 3.20461 -2.33351 
1328 2 4.63452 2.8004 -1.99012 
1399 2 -5.94485 3.67532 -3.11524 
1669 2 -5.12333 3.99049 -3.13027 
1278 2 -4.81103 3.88557 -2.4374 
1527 2 -5.32906 3.4429 -1.92993 
989 1 -3.89036 3.18003 -2.87836 
1419 2 -4.05039 4.28751 -2.69731 
1287 2 -3.26643 4.86734 -2.75371 
26 1 -3.0942 3.67738 -2.74678 
460 1 -2.32235 3.76304 -2.11558 
520 1 -2.45928 4.05632 -3.01201 
733 1 -1.59728 4.23748 -2.54101 
720 1 -0.655864 4.36424 -2.36131 
1756 2 -0.397973 3.47423 -2.79608 
1679 2 0.42774 3.56202 -2.46911 
111 1 0.162807 4.49871 -2.05577 
1968 2 1.16173 3.86182 -2.46609 
1071 2 1.97451 4.16801 -2.67851 
1981 2 1.87666 3.71541 -1.70889 
34 1 2.99197 3.35748 -2.61085 
1499 2 2.55017 4.09864 -1.9837 
394 1 3.60058 3.88599 -3.39102 
448 1 4.0672 3.80635 -2.66805 
181 1 3.63605 3.48391 -2.17711 
355 1 5.66743 4.49611 -2.3616 
552 1 4.87749 4.00722 -2.62842 
370 1 -5.53132 4.84922 -2.76868 
993 1 -4.71859 5.3678 -2.80302 
255 1 -3.93434 5.73291 -3.15678 
295 1 -3.42309 5.71827 -2.40673 
342 1 -4.19451 5.27123 -2.13449 
1348 2 -2.87411 4.6521 -2.04688 
1335 2 -2.58759 5.00142 -2.85383 
229 1 -2.68841 5.8203 -1.68594 
86 1 -1.0192 4.69744 -3.23459 
1338 2 -0.930379 5.78345 -3.20736 
1543 2 -1.32791 5.51784 -2.49948 
1339 2 -2.10502 5.14205 -2.19558 
836 1 0.0235302 4.79839 -2.95287 
1915 2 -0.488184 5.54668 -2.04685 
652 1 0.879555 4.83707 -2.31415 
442 1 1.23403 5.31383 -2.95113 
180 1 3.00839 5.65058 -2.3995 
487 1 2.12893 5.33796 -2.50158 
667 1 2.73268 5.87461 -3.1643 
1593 2 3.31014 4.74318 -2.75617 
1714 2 3.94366 5.15044 -2.95223 
1312 2 5.5652 5.90884 -3.12357 
1534 2 5.78531 5.6421 -2.30656 
1773 2 5.00196 5.33054 -2.35549 
452 1 -5.38958 -5.00107 -1.67948 
456 1 -5.51357 -5.27536 -0.948166 
280 1 -4.61141 -4.75739 -0.941387 
1454 2 -3.50485 -5.34725 -1.56379 
1122 2 -4.3359 -5.77483 -1.37768 
1613 2 -2.51099 -5.12179 -1.13206 
1327 2 -1.76786 -5.04144 -0.927051 
1802 2 -1.88594 -4.69157 -1.93874 
678 1 -0.945934 -5.43 -1.98781 
1932 2 -0.928831 -4.85175 -0.529563 
497 1 -1.24267 -5.80108 -1.27919 
459 1 0.182014 -5.25024 -1.71923 
304 1 -0.339192 -5.61783 -0.996669 
249 1 1.38425 -4.72812 -1.69279 
245 1 0.951934 -5.35812 -1.21569 
1019 1 1.64664 -5.01923 -0.917445 
1749 2 2.81587 -5.61344 -0.970863 
1928 2 2.52342 -5.38955 -1.97201 
1859 2 3.24005 -5.30558 -1.63377 
67 1 4.13843 5.96569 -2.1096 
1409 2 3.93024 -4.84773 -1.60911 
2019 2 3.58056 -5.37845 -0.752293 
153 1 5.6381 -5.35637 -1.68266 
422 1 4.72607 -5.93732 -1.48484 
542 1 5.36554 -5.73742 -0.925411 
1131 2 -5.33344 -3.79272 -1.45194 
182 1 -3.78641 -4.39342 -1.53774 
1545 2 -4.62791 -3.45384 -1.93074 
1289 2 -4.18536 -3.51609 -1.20627 
504 1 -3.12092 -4.17977 -1.1056 
21 1 -2.67837 -3.74463 -1.82092 
46 1 -2.28476 -4.14328 -0.529198 
890 1 -1.89835 -3.87115 -1.26937 
324 1 -1.13194 -3.80542 -0.797803 
1246 2 -1.05456 -4.66396 -1.36307 
844 1 -0.78368 -3.22414 -1.47957 
1753 2 -0.169105 -4.38691 -1.23702 
1580 2 0.297915 -3.93945 -1.81728 
1894 2 0.905981 -3.81313 -1.30185 
1066 2 2.00685 -3.64596 -1.0229 
20 1 2.3642 -4.55444 -1.29981 
550 1 3.11206 -4.29971 -1.24727 
1698 2 2.69798 -3.4202 -0.702296 
562 1 4.18281 -3.6056 -1.6543 
137 1 3.99908 -3.93539 -0.874089 
1530 2 5.65112 -4.22576 -1.29457 
2017 2 4.98502 -4.50719 -1.40284 
928 1 4.82649 -3.65272 -0.835028 
764 1 -5.46152 -2.7091 -1.24335 
734 1 -4.91657 -2.31906 -1.82439 
219 1 -4.51633 -2.5447 -1.08999 
1052 2 -3.81143 -2.97347 -1.9 
275 1 -4.14709 -2.04494 -1.67852 
1442 2 -3.24971 -3.15767 -0.834069 
722 1 -3.72459 -2.17352 -0.980392 
1216 2 -2.85769 -2.79036 -1.52717 
1449 2 -1.93343 -2.33432 -1.63694 
1459 2 -2.48065 -3.1514 -0.402602 
1801 2 -1.18516 -1.97584 -1.82904 
1235 2 -2.02741 -2.76964 -0.953791 
1113 2 -1.09499 -2.43013 -0.943486 
830 1 0.172683 -2.51075 -2.0423 
998 1 0.163369 -3.01837 -1.2194 
705 1 0.96681 -2.46692 -1.75246 
566 1 1.70142 -2.40132 -1.36771 
703 1 1.14296 -2.98985 -0.624055 
1991 2 2.2494 -3.06653 -1.63972 
1947 2 3.07561 -2.88982 -1.43457 
1978 2 3.92211 -2.59796 -1.52239 
1787 2 3.62626 -3.04425 -0.710411 
296 1 5.1162 -3.24324 -1.68549 
311 1 5.64815 -3.09755 -0.997302 
1641 2 4.84038 -2.36055 -1.34164 
1990 2 5.56711 -1.8568 -1.36394 
1826 2 -5.63628 -1.48233 -1.64486 
1792 2 -5.08124 -1.45001 -0.953172 
1514 2 -4.26271 -1.16469 -1.13237 
1025 2 -3.62975 -0.753107 -1.50781 
683 1 -2.93041 -1.77957 -1.04455 
548 1 -2.26081 -1.35799 -1.35498 
1174 2 -3.19447 -0.869536 -0.467746 
59 1 -1.51802 -1.05967 -1.79691 
160 1 -1.18832 -1.36467 -0.963594 
1143 2 -0.384437 -1.79244 -1.56577 
750 1 -0.521194 -0.8627 -0.98316 
1493 2 0.577837 -1.81813 -0.54134 
2046 2 1.34017 -1.21975 -1.53836 
1796 2 0.393862 -1.61651 -1.39922 
1010 1 2.50406 -2.17127 -0.923272 
1897 2 2.10343 -0.950426 -1.073 
1568 2 2.09895 -0.64409 -1.97746 
145 1 3.26212 -1.58397 -1.51897 
867 1 4.40165 -1.36861 -1.2678 
1946 2 5.27016 -1.73116 -2.27422 
518 1 5.29061 -0.978137 -1.14856 
691 1 5.56141 -0.402412 -1.93889 
230 1 -5.44543 -0.134789 -1.87231 
876 1 -5.76224 -0.549154 -1.07425 
654 1 -4.93494 -0.110955 -1.06176 
921 1 -3.47991 0.655234 -1.77873 
824 1 -4.5861 0.0677086 -1.85215 
912 1 -3.9054 0.216402 -1.09962 
1507 2 -2.14204 -0.00962078 -1.78589 
1128 2 -2.70206 -0.494691 -1.21006 
2043 2 -1.50602 0.490178 -2.01237 
1067 2 -1.52087 -0.125619 -1.27366 
963 1 -0.428234 -0.579904 -1.77947 
615 1 0.4151 -0.460382 -1.71031 
1893 2 -0.670857 0.469349 -1.55805 
776 1 1.27823 -0.1832 -1.1387 
90 1 2.06896 0.15461 -1.3458 
858 1 2.87323 0.596946 -1.55713 
1314 2 2.84398 -0.53859 -1.36809 
1696 2 3.41776 -0.296435 -1.77521 
1320 2 4.21921 -0.185986 -1.19276 
1502 2 4.33754 0.150876 -2.10384 
1680 2 3.52458 -0.709081 -0.91871 
1861 2 5.15729 0.412452 -1.70507 
1803 2 5.79786 0.251044 -0.760693 
1508 2 -4.88847 0.957621 -1.16818 
1282 2 -5.58748 0.936036 -1.52497 
110 1 -5.74287 1.86925 -1.04012 
1229 2 -3.88899 1.73741 -1.78346 
2038 2 -4.02227 1.17438 -1.03983 
1776 2 -3.14168 1.72452 -1.41946 
1170 2 -2.40864 1.92749 -1.0177 
614 1 -1.87872 0.863757 -0.746669 
1305 2 -3.03157 1.46027 -0.576679 
307 1 -2.54337 0.717478 -1.21221 
259 1 -1.88916 1.27095 -1.60933 
192 1 -0.965575 1.49566 -1.35052 
1297 2 -0.182764 0.890743 -2.16156 
1726 2 0.355641 0.733244 -1.39725 
919 1 -0.106801 1.88395 -1.74425 
910 1 -0.234704 1.53 -0.845213 
828 1 0.770039 1.85709 -0.983877 
1944 2 0.909849 1.13876 -2.07377 
1712 2 0.842641 0.674908 -0.473914 
1681 2 1.46536 1.16134 -1.14175 
1967 2 1.8909 1.45108 -1.80322 
1874 2 2.51092 1.34669 -0.933168 
1718 2 3.24112 1.80541 -1.27798 
16 1 3.7091 0.899625 -1.6631 
557 1 4.7565 1.34223 -1.4693 
1065 2 3.94384 1.88551 -0.898851 
944 1 5.19847 1.82772 -2.06329 
351 1 5.44178 1.39206 -1.12858 
761 1 -5.84673 1.96437 -1.93356 
69 1 -5.00879 2.34231 -1.81092 
926 1 -4.95989 2.07636 -1.07388 
1276 2 -5.6958 3.00589 -1.2945 
1056 2 -4.91834 3.31123 -1.08144 
323 1 -3.41251 3.08395 -2.00735 
966 1 -4.15643 2.55242 -1.34249 
298 1 -3.32475 2.80353 -1.1332 
879 1 -2.67959 3.2986 -1.56967 
1839 2 -2.20264 2.39489 -1.96281 
322 1 -2.51818 2.85823 -0.672276 
1092 2 -1.68913 2.36008 -1.15334 
1406 2 -0.734429 2.62586 -1.3012 
240 1 0.762286 2.20537 -1.73861 
1428 2 0.156713 2.75569 -0.984633 
124 1 1.68464 2.29709 -1.20525 
1854 2 1.11312 3.21512 -0.931885 
114 1 2.51889 2.51562 -1.18053 
786 1 3.2084 2.69557 -0.589289 
1977 2 3.88372 2.31616 -1.84362 
742 1 3.21864 3.06405 -1.66064 
1866 2 4.63328 2.3456 -1.20693 
582 1 3.84928 3.16766 -0.992975 
1368 2 5.38887 2.85435 -1.51348 
1686 2 5.28719 2.45712 -0.741494 
961 1 -5.03793 4.50069 -1.11626 
166 1 -5.6268 4.34751 -1.67591 
1325 2 -3.67317 4.16189 -1.86427 
1105 2 -4.31251 3.77139 -1.61757 
1992 2 -3.47788 3.92378 -0.985649 
1155 2 -2.78102 4.32071 -1.30342 
1601 2 -1.89031 4.69231 -1.39701 
1023 1 -1.7435 3.34808 -1.11007 
418 1 -1.44484 3.96119 -1.69515 
165 1 -0.407479 3.93885 -1.3048 
266 1 -1.08283 3.51779 -0.703447 
361 1 0.509255 4.12558 -1.23937 
1997 2 1.07411 3.37661 -1.8138 
905 1 1.69101 4.5381 -0.805515 
1126 2 1.88565 3.40693 -0.770004 
736 1 1.21042 4.54923 -1.55308 
1559 2 3.2474 4.16268 -1.24499 
1042 2 2.55136 3.81202 -1.10939 
650 1 4.43984 3.70503 -1.59155 
1612 2 3.44711 4.48119 -1.91391 
1090 2 4.07968 4.66503 -1.31692 
432 1 5.29608 4.02522 -1.72928 
580 1 4.9343 3.54679 -0.944735 
974 1 5.7812 3.88531 -0.931871 
1285 2 -5.31393 5.80054 -1.70795 
589 1 -4.98331 4.82503 -1.99496 
1203 2 5.72899 5.27123 -1.36348 
1918 2 -5.22871 5.64285 -0.872072 
952 1 -4.3001 5.00466 -1.34514 
203 1 -3.50135 5.05709 -0.695594 