ITEM: TIMESTEP
32100
ITEM: NUMBER OF ATOMS
2048
ITEM: BOX BOUNDS pp pp pp
-5.9439501323148161e+00 5.9439501323148161e+00
-5.9439501323148161e+00 5.9439501323148161e+00
-5.9439501323148161e+00 5.9439501323148161e+00
ITEM: ATOMS id type x y z 
333 1 -4.74139 -5.68839 -5.24597 
1390 2 -5.21887 -4.77526 -4.81362 
1849 2 -5.6178 -4.58671 -5.86686 
508 1 -3.88044 -5.50049 -4.85694 
3 1 -4.18173 -5.2101 -5.70298 
5 1 -3.09641 -5.06443 -5.05845 
91 1 -3.44511 -4.891 -5.83247 
1329 2 -1.48829 -5.89511 -4.98425 
1551 2 -0.783859 -5.45104 -5.0342 
1029 2 -1.06461 -5.33009 -5.75505 
467 1 -1.72278 -4.96194 -4.49749 
1151 2 -1.80109 -5.6107 -5.79316 
1571 2 -0.130791 -5.04149 -5.57813 
1486 2 0.533776 -4.89205 -4.90948 
428 1 1.32946 -5.41596 -5.77057 
673 1 2.10272 -5.19008 -5.7523 
959 1 1.68361 -5.59531 -4.72031 
496 1 3.06227 -4.9354 -5.77698 
575 1 2.39132 -5.36122 -5.00469 
707 1 3.30282 -4.93676 -5.05246 
1239 2 4.98781 -5.43898 -5.18703 
2003 2 5.22197 -5.07778 -5.82253 
1307 2 5.84148 -4.99601 -5.08775 
1249 2 -4.83358 -4.39591 -5.47999 
809 1 -5.17297 -3.73288 -4.71987 
622 1 -5.39482 -3.29882 -5.66815 
1467 2 -4.13105 -4.24083 -5.33532 
1472 2 -3.41658 -3.77712 -5.64894 
902 1 -2.2357 -4.74362 -5.3452 
1559 2 -3.08145 -4.25407 -4.73558 
1617 2 -2.45346 -3.59296 -5.06519 
855 1 -1.33665 -4.35435 -5.16337 
2009 2 -1.64854 -3.55712 -4.8386 
1 1 -0.412671 -4.21461 -4.99255 
819 1 0.15155 -3.68816 -5.41208 
1035 2 0.464158 -4.5466 -5.8705 
1542 2 1.23336 -4.34599 -5.35249 
1236 2 1.92422 -4.13131 -5.75439 
547 1 0.990555 -3.37949 -5.20168 
1984 2 1.98725 -4.47048 -4.68515 
1081 2 2.66305 -4.00448 -5.18342 
1260 2 3.53668 -3.7098 -5.10723 
481 1 4.36009 -4.65817 -4.91374 
1341 2 4.44905 -3.39696 -4.96601 
1082 2 3.2849 -3.46188 -5.87817 
223 1 3.91653 -4.57611 -5.8348 
684 1 5.8771 -3.74762 -5.17154 
280 1 5.26789 -4.40746 -4.23273 
511 1 5.12163 -4.24659 -5.19629 
1745 2 -4.95662 -2.12025 -5.56307 
1491 2 -4.87761 -2.42534 -4.6936 
1929 2 -5.8073 -2.35191 -5.86714 
196 1 -4.68422 -3.28652 -5.11305 
218 1 -3.95458 -2.82936 -5.38034 
1465 2 -3.90102 -1.85512 -4.97102 
402 1 -3.14937 -2.90677 -4.70345 
967 1 -3.10168 -2.58865 -5.48454 
8 1 -2.37573 -2.18082 -5.4301 
1515 2 -0.989496 -3.22291 -5.02469 
1197 2 -1.81002 -3.15388 -5.74934 
1820 2 -1.13133 -2.69696 -5.88076 
1555 2 -0.248059 -2.63724 -5.35806 
1250 2 0.485142 -2.32709 -5.59926 
1533 2 0.792603 -2.52952 -4.70129 
122 1 1.73396 -3.05388 -5.53803 
939 1 2.89993 -2.45946 -5.62409 
639 1 3.34394 -2.63133 -4.63954 
904 1 3.69896 -2.34022 -5.48158 
475 1 4.09562 -2.41255 -4.57065 
1705 2 5.85278 -2.67426 -5.09591 
1995 2 5.21842 -3.1023 -4.71342 
1089 2 5.03354 -2.81912 -5.66735 
609 1 -4.72234 -0.814434 -5.25867 
562 1 -5.4259 -1.12794 -5.17122 
1588 2 -4.18351 -1.52625 -5.73833 
1975 2 -3.2443 -1.40769 -5.2607 
1271 2 -1.95176 -1.2257 -4.41302 
1713 2 -2.44126 -1.18477 -5.2231 
1414 2 -1.3162 -0.813329 -5.02683 
367 1 -1.12203 -1.70334 -5.49204 
788 1 -0.325346 -1.31656 -5.75843 
674 1 0.0714015 -1.53952 -5.00481 
916 1 0.630008 -1.11704 -5.32108 
1698 2 1.32258 -2.03572 -5.41885 
404 1 1.53225 -1.01757 -5.07911 
334 1 1.28922 -0.638181 5.90831 
1676 2 3.11308 -1.19176 -5.71312 
1363 2 2.23265 -1.73601 -5.29594 
1946 2 3.08178 -1.55553 -4.93877 
277 1 4.57124 -1.93683 -5.43956 
1257 2 3.97637 -1.22763 -4.72262 
1982 2 3.91139 -0.9716 -5.60565 
1615 2 4.70753 -0.674303 -5.21209 
33 1 5.25441 -1.42703 -5.78701 
403 1 5.52285 -1.75818 -5.14271 
2014 2 5.18119 -0.934267 -4.52172 
999 1 -5.82705 -1.04766 -5.95769 
2036 2 -4.94864 0.184123 -5.02104 
1725 2 5.79023 -0.378519 -4.73389 
1346 2 -4.52373 0.663141 -5.83531 
1224 2 -5.45269 0.0791926 -5.57783 
1111 2 -4.11571 0.478585 -5.05234 
833 1 -3.85662 -0.554943 -4.98728 
55 1 -4.12799 -0.501632 -5.82214 
505 1 -2.80444 -0.294291 -4.89739 
212 1 -3.26324 -0.265442 -5.56105 
374 1 -2.22059 0.109985 -5.37877 
1243 2 -1.71324 -0.772901 -5.80806 
1809 2 -0.727821 -0.496245 -5.43475 
829 1 -1.04667 0.587632 -5.37104 
1631 2 0.270363 0.0367333 -5.7991 
1570 2 -0.0132607 -0.352095 -5.1092 
1785 2 0.862 -0.0170017 -4.75589 
1180 2 1.00594 0.200099 -5.53927 
1314 2 1.78556 0.271282 -5.14692 
105 1 3.03059 -0.264745 -5.23999 
1502 2 2.67199 0.665584 -4.78735 
872 1 2.20781 -0.617007 -5.20171 
125 1 2.74395 -0.618219 -4.42525 
195 1 4.36721 0.0854061 -4.89738 
900 1 3.62347 -0.218805 -4.44778 
1939 2 5.46735 -0.413531 -5.36705 
302 1 4.53411 0.688897 -5.78983 
138 1 5.18516 0.48748 -4.83907 
230 1 -4.7775 1.38112 -5.02343 
866 1 -5.54327 0.899729 -4.65572 
360 1 -5.30848 1.44276 -5.71416 
109 1 -4.33489 1.77805 -5.64563 
689 1 -3.8313 1.61911 -5.00168 
1343 2 -3.37807 0.855072 -5.48278 
1498 2 -2.27036 1.33177 -5.39166 
1876 2 -2.69837 0.816616 -4.75575 
1256 2 -1.73449 1.2823 -4.78656 
1058 2 -0.951282 1.73024 -5.01514 
1945 2 -0.77312 1.97889 -5.78818 
1797 2 -1.54748 1.57615 -5.71578 
244 1 -0.268968 0.823158 -5.16759 
827 1 0.406878 0.851086 -4.5342 
482 1 0.170332 1.1722 -5.81878 
380 1 0.839886 1.22494 -5.2284 
551 1 1.41366 1.02606 -4.56597 
534 1 1.16576 1.68573 -5.82806 
570 1 2.01804 1.82829 -5.28608 
1226 2 2.33717 0.893645 -5.47515 
1210 2 3.38878 1.15826 -5.37573 
1572 2 4.16089 1.28278 -5.16463 
1953 2 4.65828 1.94001 5.86353 
469 1 5.81284 1.00684 -5.32292 
1470 2 5.00265 1.67797 -5.29522 
1204 2 5.8776 1.9133 -4.60006 
1877 2 5.84131 2.22009 -5.39245 
1412 2 -5.12521 2.59348 -5.48853 
1403 2 -5.27894 2.25111 -4.48668 
190 1 -3.64179 2.11017 -5.89995 
1800 2 -4.01749 2.85947 -5.25171 
752 1 -2.91598 2.20919 -5.18409 
493 1 -2.77069 2.50519 5.78724 
815 1 -2.03409 2.63112 -5.34275 
1938 2 -2.96217 3.12389 -4.68912 
950 1 -1.07929 3.03175 -5.46333 
709 1 -1.48797 2.5447 -4.61789 
1506 2 -0.0233459 1.91339 -5.14326 
885 1 0.547577 3.30258 -5.19079 
491 1 -0.384789 2.97499 -5.02225 
1979 2 0.769342 2.3565 -5.26549 
1085 2 1.6787 2.77974 -5.21927 
1322 2 1.553 3.28066 -5.9011 
869 1 2.927 1.97707 -4.85468 
1653 2 2.51739 3.29075 -5.21828 
118 1 2.76211 2.21643 -5.7141 
96 1 3.66057 2.33243 -5.27658 
762 1 4.43407 2.80115 -5.54089 
574 1 4.11225 2.37636 -4.64039 
188 1 5.2147 2.85108 -4.81831 
178 1 5.20905 3.1284 -5.67525 
396 1 -5.88938 3.29704 -5.38365 
926 1 -5.02068 3.87477 -5.75865 
676 1 -5.14839 3.58917 -4.96119 
369 1 -4.28185 3.85742 -4.94524 
69 1 -3.59281 4.27074 -5.09668 
250 1 -4.20113 4.31285 -5.89833 
923 1 -2.93958 4.64891 -5.49326 
1482 2 -3.27006 3.31458 -5.44035 
1772 2 -2.42697 3.87097 -5.68878 
221 1 -1.89097 4.87213 -4.86421 
1959 2 -2.29026 3.52218 -4.78551 
1476 2 -1.5 3.91404 -5.11587 
1934 2 -1.57318 4.25717 5.73894 
1336 2 -0.855033 4.22509 -5.61373 
1378 2 -0.322972 4.08203 -4.96786 
852 1 -0.321881 3.29581 -5.86799 
1593 2 0.530494 4.39775 -4.73608 
76 1 0.712401 3.75563 5.802 
56 1 1.41316 3.79243 -4.80758 
501 1 1.66947 4.2446 -5.54187 
1342 2 3.21662 3.79222 -5.9427 
653 1 2.21622 3.91094 -4.53107 
1002 1 2.57082 4.51969 -5.65319 
432 1 3.08217 4.26436 -4.83925 
1214 2 3.42977 3.36322 -5.10011 
1274 2 3.99757 3.77502 -5.5115 
1779 2 5.46301 4.11825 -5.02411 
1073 2 5.83928 4.69437 -5.42059 
1207 2 -5.03695 4.88331 -5.35965 
166 1 -5.69351 -5.91484 -5.44681 
1311 2 -4.07775 5.19202 -4.90166 
1606 2 -4.63039 5.39115 -5.89829 
2029 2 -3.76957 5.69164 -5.82303 
1989 2 -3.35061 5.49531 -5.12919 
146 1 -2.21664 5.10154 -5.65437 
1301 2 -2.61093 -5.86942 -5.22798 
797 1 -1.31185 5.10914 -5.39655 
836 1 -0.71729 5.10123 -4.77862 
87 1 -0.6022 5.36889 -5.62144 
1692 2 0.366317 4.55517 -5.46791 
350 1 0.0360583 5.94384 -5.72899 
340 1 0.034915 5.49482 -4.98784 
1013 1 0.778966 -5.90642 -5.18557 
1756 2 1.22531 5.13472 -5.49322 
1093 2 2.98204 5.68715 -5.15502 
1145 2 2.07844 5.33751 -5.08242 
1901 2 4.16568 -5.69908 -5.27199 
437 1 4.00353 4.6351 -4.92106 
473 1 3.57372 4.81133 -5.68815 
255 1 4.33155 5.14038 -5.69753 
835 1 4.93817 5.07222 -4.71899 
514 1 5.69274 5.49993 -4.9217 
440 1 5.35678 5.76875 -5.86869 
1227 2 -5.74281 -5.14884 -4.26024 
1203 2 -5.5946 -5.63555 -3.49575 
1931 2 -4.86378 -5.03245 -3.78543 
14 1 -4.41496 5.87837 -4.29466 
346 1 -3.35693 -5.5615 -4.26 
1534 2 -3.96054 -4.94531 -3.6106 
274 1 -2.53542 -5.37594 -4.0669 
147 1 -2.8765 -5.77457 -3.43724 
497 1 -1.22726 -5.12334 -3.69889 
1503 2 -0.740048 5.87877 -4.21824 
107 1 -0.860883 -4.48967 -4.33646 
1338 2 -0.140617 -5.30673 -4.5367 
1747 2 0.172772 -5.65917 -3.88801 
416 1 -0.226277 -4.80296 -3.43736 
1563 2 1.23359 -4.66838 -4.52034 
1344 2 0.825327 -5.25519 -3.83014 
1915 2 1.76743 -4.97667 -3.50258 
43 1 2.27032 -5.8457 -3.83162 
64 1 3.1875 -5.7443 -3.50532 
931 1 2.87163 -5.47883 -4.34408 
180 1 3.84568 -5.1549 -4.31864 
131 1 4.01925 -5.4328 -3.43984 
242 1 4.56432 -4.83681 -4.11411 
1714 2 5.3305 -5.59218 -4.44737 
2034 2 5.43763 -5.84742 -3.66574 
373 1 -5.85395 -4.07744 -4.13301 
75 1 -5.06363 -4.14611 -3.59865 
465 1 -4.51696 -3.75347 -4.20497 
2000 2 -3.39591 -4.52409 -3.95303 
1411 2 -4.35962 -4.71042 -4.44325 
634 1 -3.46601 -3.5772 -3.94469 
1425 2 -2.47932 -4.46203 -3.63569 
1602 2 -2.2126 -4.0614 -4.24135 
1711 2 -1.39792 -3.54657 -4.05799 
1881 2 -1.67318 -4.2195 -3.52666 
1848 2 -0.611707 -3.72414 -3.42144 
227 1 -0.077303 -4.18662 -4.22129 
249 1 0.498631 -4.31334 -3.55845 
20 1 0.501529 -3.85852 -4.65666 
938 1 1.68743 -3.405 -4.49779 
569 1 1.10405 -3.75901 -3.95467 
1828 2 2.5115 -4.53598 -3.85846 
2004 2 3.16907 -4.1247 -4.43637 
1019 1 1.95504 -3.72013 -3.6637 
1198 2 4.03306 -3.94287 -4.15564 
1592 2 3.56618 -4.46278 -3.46364 
1887 2 4.71387 -3.48635 -4.01013 
339 1 5.67767 -4.68924 -3.38754 
1937 2 -4.63169 -2.66354 -3.77839 
1483 2 -5.62616 -2.81164 -4.37442 
1817 2 -5.27161 -3.08814 -3.69575 
965 1 -3.87644 -3.43958 -4.62789 
1296 2 -4.00135 -2.3624 -4.28327 
595 1 -2.36594 -2.58352 -4.52678 
150 1 -2.6171 -3.08023 -3.89542 
1664 2 -3.26813 -2.03544 -3.81417 
35 1 -1.56617 -2.20967 -4.80975 
151 1 -1.68892 -2.54614 -3.9062 
236 1 -0.735627 -2.19842 -3.91251 
816 1 -1.81216 -3.11471 -3.17507 
1581 2 -0.702479 -3.18798 -4.20859 
1231 2 0.0997487 -3.14041 -3.78245 
1894 2 0.0200708 -2.79071 -4.57535 
1947 2 0.951227 -2.76776 -4.0081 
1923 2 1.8451 -2.24129 -4.74756 
136 1 2.58182 -2.98183 -4.92117 
1001 1 2.63602 -3.42152 -3.99263 
1738 2 2.80344 -2.3091 -3.66838 
1580 2 1.96014 -2.49734 -3.84927 
485 1 3.5292 -2.98364 -3.87752 
928 1 4.46556 -2.53526 -3.83404 
385 1 4.86574 -2.13479 -4.72102 
1319 2 5.58564 -3.29155 -3.69192 
550 1 5.20012 -2.12691 -3.94341 
771 1 -5.18563 -1.54548 -4.26571 
179 1 5.88678 -1.8712 -4.28108 
1634 2 5.96754 -0.760198 -3.9016 
701 1 -4.42612 -1.07914 -4.47686 
117 1 -3.56173 -0.823524 -4.305 
161 1 -4.78987 -1.63952 -3.39987 
592 1 -4.02343 -1.35152 -3.73159 
2032 2 -2.9261 -1.6826 -4.59584 
1097 2 -2.41899 -1.88676 -3.75864 
1870 2 -1.20211 -1.25807 -4.07807 
599 1 0.023674 -1.74102 -4.1403 
657 1 -0.699593 -1.88452 -4.69808 
1223 2 -0.649796 -1.24944 -3.39351 
1500 2 -0.62753 -0.836488 -4.50291 
1673 2 0.233293 -0.900228 -3.2924 
830 1 1.02955 -1.50521 -4.50278 
287 1 0.734014 -1.91574 -3.25172 
705 1 1.48495 -1.51079 -3.75593 
421 1 1.94276 -1.10672 -4.35908 
427 1 2.51282 -1.13537 -3.69371 
1259 2 2.5946 -1.9188 -4.39202 
42 1 3.28153 -0.721159 -3.63144 
1190 2 3.51472 -1.59739 -4.23452 
1128 2 4.11495 -1.53488 -3.627 
1083 2 4.62986 -1.15933 -4.00717 
1775 2 5.34159 -1.17968 -3.43489 
1030 2 -5.06169 -0.341252 -4.15216 
278 1 -5.41904 0.47265 -3.51578 
1110 2 -4.28158 0.0723219 -4.33052 
1792 2 -3.53452 -0.0248985 -3.51112 
2048 2 -3.43117 0.433048 -4.37269 
1163 2 -4.33973 -0.15849 -3.54688 
214 1 -2.68533 -0.527453 -4.13629 
1754 2 -2.75132 0.323543 -3.66549 
848 1 -1.99114 -0.13329 -4.39246 
254 1 -1.40993 0.172752 -4.92012 
704 1 -1.30575 0.00772594 -3.93267 
451 1 -0.62227 0.463318 -4.49376 
1644 2 0.289805 -0.65569 -4.11368 
80 1 0.116444 0.3974 -3.81396 
2041 2 1.36687 -0.271321 -4.16906 
1057 2 1.14628 -0.622067 -3.37332 
1963 2 2.00901 -0.122482 -3.49449 
2008 2 2.118 0.154121 -4.24563 
1529 2 2.77843 0.468459 -3.90367 
241 1 4.2178 -0.253756 -3.7569 
1059 2 3.65125 0.523362 -3.59575 
715 1 4.8972 0.134824 -4.10381 
32 1 5.43044 0.0390972 -3.41642 
912 1 5.7858 0.460138 -4.15526 
397 1 -4.87185 1.08451 -4.08605 
1361 2 -5.32772 1.8285 -3.59884 
697 1 -4.00747 1.39345 -4.08698 
824 1 -3.16267 1.69014 -4.37043 
903 1 -2.62328 1.68281 -3.59597 
2001 2 -1.27505 1.20074 -4.01094 
1830 2 -2.18028 0.858695 -4.00273 
1550 2 -0.796131 1.05436 -3.2876 
1999 2 -0.385856 1.60424 -4.30394 
1884 2 0.708096 1.63518 -3.42417 
1962 2 -0.0524091 1.40685 -3.50382 
1298 2 0.552068 1.8288 -4.38326 
401 1 0.950588 0.711866 -3.85906 
382 1 2.19842 1.57424 -4.41418 
895 1 1.88921 1.07459 -3.65966 
894 1 2.72825 1.49006 -3.72024 
447 1 3.53208 1.92072 -4.17296 
1172 2 4.38623 0.997151 -3.87292 
1011 1 4.34461 2.04394 -3.6807 
2027 2 3.58042 0.861813 -4.571 
1696 2 4.8307 1.41431 -4.3889 
1777 2 5.5913 1.49577 -3.94574 
7 1 -5.70505 3.19739 -4.44501 
882 1 -4.9403 3.42782 -3.96653 
1861 2 -4.51636 2.57659 -4.66466 
1728 2 -3.89027 2.33493 -3.39434 
1068 2 -4.5712 2.21429 -3.84438 
1512 2 -3.56553 2.7537 -4.1512 
1015 1 -2.34205 2.0511 -4.2923 
1092 2 -3.082 2.56493 -3.35477 
1794 2 -2.56176 2.98317 -3.87534 
982 1 -0.839681 2.47634 -3.841 
719 1 -1.7013 2.12327 -3.67122 
593 1 0.315018 2.54799 -3.54468 
552 1 0.0331682 2.75119 -4.29858 
1054 2 1.23852 2.20711 -4.56173 
448 1 0.933573 3.34509 -4.30763 
1642 2 1.3926 2.06896 -3.67529 
1967 2 2.1222 2.67068 -4.27982 
1461 2 2.87887 3.00716 -4.43925 
1158 2 2.30248 2.36781 -3.41033 
1769 2 3.17673 2.67363 -3.59774 
2020 2 3.7829 3.23652 -4.37353 
1105 2 4.1629 3.06952 -3.5037 
631 1 5.9546 2.75631 -3.84921 
726 1 5.00182 2.44832 -4.16293 
1088 2 -5.60224 4.53622 -4.64454 
1977 2 -5.51728 4.22709 -3.87504 
298 1 -4.07772 3.64573 -4.02718 
1278 2 -4.57921 4.48659 -3.65256 
45 1 -3.29284 4.06554 -4.35519 
204 1 -3.79877 3.36821 -3.24939 
323 1 -2.59212 4.45264 -4.57418 
751 1 -2.1683 4.29593 -3.81336 
460 1 -3.01577 3.75307 -3.39668 
1175 2 -1.85334 3.40336 -4.08197 
1247 2 -1.34181 3.21315 -3.28661 
276 1 -0.993702 4.45043 -3.40152 
123 1 -1.44823 4.66145 -4.12391 
1142 2 -0.960947 3.6734 -4.45568 
1625 2 0.0891161 3.91257 -4.03796 
394 1 1.77461 3.50114 -3.93374 
2040 2 1.23668 4.78524 -4.55473 
1042 2 1.95715 4.57941 -3.41289 
1267 2 1.16211 4.35552 -3.7693 
262 1 2.7923 3.75385 -3.68196 
143 1 3.44626 4.14758 -4.09891 
370 1 4.12103 4.52731 -3.99053 
1562 2 4.61742 3.72889 -4.88975 
2039 2 4.80108 3.48925 -3.98986 
1349 2 5.50104 4.02823 -4.28443 
1365 2 -4.78761 4.63928 -4.46907 
412 1 -5.2565 5.6473 -4.60286 
825 1 -4.42135 5.47967 -3.27891 
662 1 -5.14943 5.36643 -3.70951 
1527 2 -3.92043 4.9395 -4.05468 
805 1 -3.6729 5.82957 -3.74082 
1417 2 -3.19205 4.78937 -3.49756 
1526 2 -2.43219 5.62715 -4.57627 
1138 2 -3.09074 5.24917 -4.36704 
1510 2 -2.4783 5.19811 -3.55796 
1353 2 -1.7089 5.60517 -3.96314 
1818 2 -0.463055 5.68173 -3.35862 
41 1 -0.266821 4.82752 -3.94387 
638 1 0.394144 5.39552 -4.24082 
871 1 0.126617 4.73577 -3.17047 
612 1 0.809341 5.19596 -3.37214 
165 1 1.25922 5.78231 -4.15236 
1607 2 2.05685 4.94111 -4.23176 
1764 2 2.88398 5.21401 -4.42731 
1926 2 2.87336 4.83963 -3.56898 
1090 2 4.45942 -5.90624 -4.41388 
1847 2 3.73188 5.62322 -4.4718 
1875 2 3.63673 5.24673 -3.57772 
1846 2 4.47663 5.59903 -3.70416 
699 1 5.84033 5.26758 -4.01703 
181 1 5.05754 4.76889 -3.98242 
1612 2 -4.78882 -5.36837 -3.02368 
798 1 -5.6848 -4.8302 -2.07281 
1126 2 -4.44428 -5.59864 -2.12002 
1548 2 -3.88347 -5.29166 -2.92102 
1047 2 -3.46731 -5.33473 -2.28007 
1046 2 -3.17826 -4.78273 -3.10215 
1394 2 -2.70039 -4.88766 -2.33027 
974 1 -1.36955 -5.57696 -2.5833 
260 1 -0.769862 -5.21349 -2.94084 
1014 1 -1.87894 -5.5695 -3.31768 
1928 2 0.308817 -5.82354 -2.94748 
305 1 -0.195022 -5.11123 -2.40686 
954 1 0.513357 -4.65871 -2.80098 
1957 2 1.12846 -5.41526 -2.91682 
1859 2 1.94597 -5.6096 -1.84828 
2017 2 2.86706 -4.86518 -3.01804 
1749 2 1.99896 -5.31415 -2.76296 
1530 2 2.56014 -5.14333 -2.24078 
19 1 4.0688 -5.55383 -2.47006 
1232 2 3.35416 -4.83291 -2.32697 
284 1 4.74797 -5.04586 -3.30828 
955 1 4.9228 -5.37404 -2.29792 
878 1 5.58112 -4.91067 -2.64231 
273 1 -5.44086 -4.59867 -2.89463 
251 1 -4.40101 -4.2404 -2.86226 
504 1 -4.9039 -4.69355 -2.15191 
2007 2 -5.08566 -3.33025 -2.59379 
441 1 -4.1872 -3.76492 -3.49447 
269 1 -4.0281 -4.42492 -2.10641 
1991 2 -2.06571 -4.60015 -2.78672 
71 1 -3.55129 -3.83488 -2.78039 
753 1 -2.79221 -3.50614 -3.04483 
398 1 -2.18126 -3.5527 -2.48081 
890 1 -2.72339 -3.98909 -2.21194 
1079 2 -1.17091 -4.50679 -2.08375 
1896 2 -1.08786 -4.13076 -2.92043 
1942 2 0.0554368 -3.73324 -2.7089 
1748 2 0.559662 -3.70829 -1.96106 
257 1 1.17403 -4.4597 -2.38154 
1658 2 1.25531 -3.30774 -2.51573 
934 1 1.38501 -4.08303 -3.18588 
981 1 2.61385 -3.77426 -3.09381 
661 1 2.01332 -4.22155 -2.64065 
100 1 3.35573 -3.81365 -2.06184 
2019 2 4.49164 -3.9319 -3.41966 
1657 2 4.1273 -4.39646 -2.82231 
352 1 3.92824 -3.25573 -2.46848 
1750 2 5.26274 -3.76993 -3.061 
1871 2 4.78555 -4.13555 -2.344 
1655 2 5.79864 -3.80294 -2.35937 
1851 2 -5.71798 -3.57965 -3.10647 
1545 2 -4.4536 -2.93409 -2.92507 
532 1 -5.16987 -2.20893 -2.65208 
1442 2 -3.73363 -2.89263 -2.41345 
1902 2 -3.86245 -2.55725 -3.27074 
917 1 -3.8661 -1.92505 -2.02853 
1867 2 -2.20863 -2.01251 -2.86217 
1478 2 -3.05938 -2.46972 -3.02054 
1911 2 -2.73895 -2.72636 -2.13611 
677 1 -0.840688 -2.59569 -3.10953 
411 1 -1.29148 -3.15656 -2.35143 
1908 2 -1.64715 -2.26437 -2.36907 
313 1 -0.0398966 -2.24963 -3.23174 
844 1 0.385341 -2.33462 -2.4763 
388 1 -0.352597 -2.83118 -2.31328 
1457 2 0.59504 -3.231 -3.08584 
1263 2 1.4931 -2.92925 -3.17381 
1878 2 2.18797 -3.12152 -2.4816 
1787 2 2.75377 -2.63241 -2.89609 
1645 2 3.40286 -1.98914 -3.2439 
1641 2 3.22323 -2.37828 -2.21326 
914 1 3.36088 -3.54401 -3.08884 
754 1 4.25846 -2.9394 -3.15589 
1148 2 3.85895 -2.05906 -2.59283 
784 1 -5.89902 -2.53841 -2.71542 
471 1 5.19941 -2.53944 -3.11298 
311 1 4.93877 -3.01609 -2.446 
968 1 5.57461 -2.82322 -2.00156 
205 1 -5.62401 -2.1499 -3.49043 
2035 2 -4.96437 -0.667018 -3.17517 
1279 2 -4.82963 -0.986746 -2.38199 
1237 2 -5.82696 -1.11204 -3.03967 
1940 2 -5.77614 -1.30908 -2.14728 
140 1 -4.33572 -1.85613 -2.68158 
1206 2 -4.02852 -0.980903 -2.01015 
548 1 -3.58068 -1.50227 -2.92111 
948 1 -2.84083 -0.941727 -3.3979 
37 1 -2.9491 -1.65716 -2.00848 
499 1 -2.59274 -1.09862 -2.55993 
1573 2 -1.62704 -1.70644 -3.35292 
1456 2 -0.965716 -1.74053 -2.66394 
615 1 -1.66968 -0.96304 -2.48369 
1345 2 -0.13036 -1.39347 -2.52517 
1517 2 0.30386 -1.53111 -1.7561 
691 1 2.04098 -1.71167 -3.14531 
597 1 1.38173 -2.08063 -2.6238 
1804 2 0.682307 -1.04981 -2.63743 
2046 2 1.5424 -0.716177 -2.72377 
1659 2 2.20681 -0.603134 -1.84406 
640 1 2.9925 -1.1399 -2.92465 
867 1 2.47652 -1.51327 -2.28082 
116 1 3.52602 -0.963457 -2.34893 
198 1 4.35245 -0.663389 -2.24199 
1299 2 4.59257 -1.52168 -2.94612 
1286 2 5.48288 -1.65218 -2.60283 
1492 2 4.56863 -1.93214 -2.14624 
299 1 -4.82328 0.400497 -2.75895 
654 1 -5.06703 0.0486639 -2.17672 
708 1 -5.76732 0.0109623 -2.83574 
1350 2 -4.01007 -0.624137 -2.81369 
489 1 -4.24526 0.0065443 -1.84914 
717 1 -2.00518 -0.566306 -3.47961 
1184 2 -3.2651 -0.176082 -2.67567 
1104 2 -2.39181 0.171638 -2.90715 
1025 2 -2.36169 -0.142263 -2.11798 
789 1 -1.3935 -0.494067 -3.03262 
1834 2 -1.61421 0.432447 -2.37453 
886 1 -0.867501 -0.440366 -2.37244 
1643 2 -1.72665 0.66221 -3.22013 
594 1 -0.58617 -0.0880953 -3.26076 
517 1 -0.0205502 -0.0281651 -2.6257 
1021 1 0.572938 0.38692 -3.14633 
749 1 1.10504 0.187237 -2.23027 
90 1 1.46338 0.642822 -3.02152 
408 1 2.03358 0.434321 -2.2979 
1832 2 2.20057 -0.346985 -2.81768 
1952 2 3.02019 0.154604 -3.01483 
700 1 3.87432 -0.626845 -2.92708 
1505 2 3.64884 0.386707 -2.62547 
297 1 4.77086 -0.419254 -3.15 
958 1 5.33259 -0.290036 -2.48687 
1045 2 4.77847 0.459969 -2.01608 
1282 2 -4.5112 1.81223 -2.9092 
2030 2 -5.37043 1.47694 -2.73747 
1320 2 5.82726 1.31191 -3.11213 
818 1 -3.90249 0.584705 -2.62506 
94 1 -4.35921 0.907051 -3.41759 
1654 2 -4.128 1.53896 -2.1823 
164 1 -3.59112 1.25026 -3.42012 
686 1 -2.79824 1.14812 -2.77521 
310 1 -1.99542 1.70378 -2.83738 
494 1 -1.21428 2.08088 -2.92713 
1436 2 -0.794893 0.781684 -2.49888 
240 1 -1.06518 1.66062 -1.85304 
1683 2 0.0798891 1.17739 -2.67454 
1050 2 0.93156 1.48303 -2.56822 
1994 2 1.58019 1.81836 -2.85291 
842 1 2.28686 1.09616 -2.82599 
621 1 3.04935 1.37242 -2.63558 
760 1 3.61198 1.5594 -3.33306 
1220 2 4.38518 0.583585 -2.94451 
232 1 4.58196 1.78777 -2.7288 
194 1 3.8893 1.40597 -2.42013 
1986 2 5.0228 0.969193 -3.29581 
1468 2 5.73709 0.829456 -2.31651 
944 1 5.1895 1.74491 -2.13241 
879 1 -4.85527 2.69542 -2.44618 
702 1 -5.46239 2.72219 -3.16909 
811 1 5.8981 2.34463 -2.57775 
1839 2 -3.37553 2.01959 -2.56131 
731 1 -4.71958 3.06177 -3.21703 
568 1 -4.12135 2.9413 -2.36021 
322 1 -3.21961 3.47851 -2.40346 
2021 2 -2.77302 2.55359 -2.76498 
1727 2 -2.41228 2.31502 -2.11706 
1689 2 -1.67139 2.723 -2.18045 
1415 2 -2.02962 2.84393 -3.05253 
1485 2 -0.832948 3.15973 -2.63413 
301 1 -0.424147 2.27244 -3.1637 
478 1 0.371966 2.37898 -2.58249 
208 1 -0.375203 2.07762 -2.20453 
561 1 1.06305 3.01657 -3.58458 
937 1 1.16952 2.71829 -2.53979 
896 1 1.88014 3.15769 -3.03825 
828 1 1.86227 2.79085 -1.97679 
1065 2 3.33598 2.43609 -2.73736 
1825 2 2.48824 2.11184 -2.63192 
1686 2 4.20733 2.80669 -2.57803 
1522 2 3.82041 2.50368 -1.87531 
171 1 5.31703 2.34281 -3.22062 
1662 2 5.01247 3.1323 -2.74255 
1554 2 5.33615 3.08131 -2.01125 
1072 2 -5.78514 3.86863 -3.12918 
1048 2 -4.98995 4.08982 -2.95599 
918 1 -5.85404 4.64568 -2.36505 
1335 2 -5.01895 3.68454 -2.17418 
1971 2 -4.31702 4.12093 -2.43499 
1413 2 -3.91778 4.50679 -3.06377 
111 1 -2.43331 3.72347 -2.76047 
1419 2 -3.61701 4.24837 -1.88828 
520 1 -1.96644 3.67869 -1.9828 
772 1 -1.72429 4.23124 -3.02026 
17 1 -0.386986 4.2161 -2.66806 
26 1 -1.18712 4.10237 -2.3686 
1668 2 -0.477011 3.52662 -3.49566 
1071 2 0.658523 3.86631 -3.30393 
1183 2 0.0480765 3.31773 -2.83278 
1406 2 0.858491 3.63065 -2.25043 
1869 2 1.49115 4.14266 -2.78332 
775 1 2.75877 3.41123 -2.8632 
256 1 2.71422 3.15887 -1.96611 
1499 2 2.64474 4.56234 -2.69914 
34 1 4.33002 4.20167 -3.21154 
906 1 3.49175 3.87249 -3.19636 
641 1 3.59628 3.56987 -2.26341 
650 1 4.44552 3.95975 -2.37693 
1670 2 -5.80787 3.48146 -2.48311 
1786 2 5.45217 3.60674 -3.52997 
742 1 5.24778 4.36193 -2.35732 
2016 2 -5.36778 -5.90306 -2.22678 
443 1 5.88419 4.99084 -3.3317 
961 1 -5.10664 5.12104 -2.65875 
1008 1 -3.24565 5.67813 -2.81808 
119 1 -3.32659 5.48099 -1.90409 
453 1 -4.15654 5.36101 -2.51721 
1127 2 -3.18729 4.65093 -2.54416 
589 1 -2.39026 -5.86429 -2.62852 
1575 2 -2.35601 4.91043 -2.59965 
1038 2 -1.482 5.24296 -3.09114 
1191 2 -0.647205 5.26694 -2.62135 
1339 2 -1.38304 5.05777 -2.02926 
516 1 0.653206 4.76665 -2.44069 
1136 2 0.268926 5.77361 -2.19754 
1543 2 1.171 -5.88153 -2.17455 
361 1 1.4028 5.16959 -2.57862 
736 1 1.71979 5.52895 -3.31335 
343 1 2.24433 5.24263 -2.06803 
182 1 3.12288 5.64416 -1.91604 
487 1 2.4682 5.67854 -2.98299 
667 1 3.22257 5.8522 -2.71274 
1854 2 3.49515 4.86209 -2.78922 
1318 2 4.27131 5.35559 -2.91653 
1100 2 4.74465 5.21547 -2.12285 
1192 2 5.83909 5.88731 -2.69451 
946 1 5.06861 4.56897 -3.14693 
1699 2 5.02834 5.61893 -2.87812 
1362 2 5.56819 5.50495 -1.90282 
864 1 -4.82574 -5.2094 -0.537053 
724 1 -5.93995 -5.44484 -0.986214 
802 1 -5.29165 -5.09613 -1.22066 
524 1 -4.46795 -4.68692 -1.38824 
1272 2 -3.82114 -5.67561 -1.28169 
1285 2 -3.05079 -5.27644 -1.50376 
1454 2 -1.97304 -4.7937 -1.85327 
229 1 -0.706632 -5.71345 -1.88943 
1477 2 -2.12923 -5.08892 -1.08777 
672 1 -0.954024 -5.85935 -1.17766 
1783 2 -1.28197 -4.86726 -1.18704 
295 1 -0.0866795 -5.22344 -1.48015 
317 1 0.711676 -5.40582 -0.605623 
30 1 -0.221486 -5.77048 -0.520512 
459 1 0.663651 -5.03772 -1.88672 
455 1 1.26307 -5.02007 -1.25117 
1880 2 2.20213 -5.72998 -0.853119 
216 1 2.16628 -4.59174 -0.802218 
1864 2 2.81466 -5.35581 -1.4576 
847 1 4.10032 5.85364 -1.64548 
1765 2 3.77996 -5.09168 -1.3763 
1487 2 4.40476 -4.94152 -0.702633 
1767 2 3.29884 -5.46311 -0.487362 
1129 2 5.12732 -4.48839 -1.02768 
153 1 5.56455 -5.19392 -1.69429 
586 1 4.9121 -5.82684 -1.26574 
542 1 5.33954 -5.82891 -0.563691 
2010 2 -5.24424 -3.75801 -1.84492 
1948 2 -5.55302 -4.11088 -0.898064 
1449 2 -4.65902 -3.71164 -1.21019 
21 1 -3.41261 -4.4006 -1.56119 
1069 2 -3.78022 -3.59198 -0.900997 
1119 2 -4.24843 -3.37825 -1.9607 
329 1 -2.81233 -4.37097 -0.890426 
366 1 -2.35161 -3.94778 -1.36158 
875 1 -1.59868 -3.59602 -1.77585 
526 1 -1.30349 -3.7975 -0.920469 
1613 2 -0.444362 -4.00584 -2.20302 
1535 2 0.324901 -4.15792 -1.17324 
1985 2 -0.531717 -4.33578 -1.47239 
1812 2 1.43083 -3.56379 -1.63609 
286 1 1.81978 -4.58502 -1.73371 
1381 2 1.06413 -3.94439 -0.887807 
245 1 2.62523 -4.21649 -1.76772 
1798 2 1.96036 -3.70742 -0.513322 
1973 2 2.115 -3.26573 -1.17243 
693 1 3.10913 -4.4124 -1.05164 
1737 2 4.41581 -4.62032 -1.80652 
328 1 3.87186 -3.96904 -1.32771 
321 1 4.47593 -3.30885 -1.71991 
522 1 4.71918 -3.54761 -0.866737 
1836 2 5.62637 -4.03456 -1.57321 
602 1 5.16883 -3.15745 -1.40888 
636 1 -4.75759 -2.24513 -1.87558 
58 1 5.90059 -3.00786 -1.05035 
734 1 -4.94159 -2.76795 -0.835231 
767 1 -5.44076 -2.69834 -1.6714 
344 1 -3.45718 -2.27001 -1.34347 
99 1 -4.29969 -2.48717 -1.16426 
1537 2 -1.93713 -2.50448 -1.49779 
1993 2 -3.45726 -3.25321 -1.66537 
1077 2 -2.53244 -2.94795 -1.08232 
986 1 -0.747882 -3.22823 -1.58753 
1574 2 -1.13723 -2.50624 -1.01616 
11 1 -0.0322474 -3.23401 -0.990288 
998 1 0.247575 -2.72834 -1.6487 
1781 2 -0.750636 -1.98809 -1.9006 
377 1 2.00598 -2.17858 -2.06499 
347 1 0.824033 -2.65105 -1.10196 
566 1 1.71725 -2.17197 -1.23839 
106 1 1.08437 -2.44339 -2.06448 
1066 2 2.87076 -3.33071 -0.866256 
626 1 2.64083 -2.01061 -1.26816 
1708 2 2.73298 -2.9792 -1.84813 
1167 2 3.93801 -2.50051 -1.6385 
1996 2 4.78926 -2.10559 -1.27483 
1770 2 3.45954 -2.8384 -1.07536 
1501 2 5.41343 -2.02952 -0.697996 
1978 2 -4.95247 -1.47193 -1.44912 
1393 2 -5.83704 -1.73075 -1.36827 
1826 2 -4.11111 -1.33289 -1.26511 
234 1 -1.99203 -1.43307 -1.61079 
682 1 -2.67547 -1.77943 -1.14836 
1337 2 -3.27636 -0.967064 -1.15838 
963 1 -1.87435 -1.72996 -0.776868 
630 1 -1.13935 -0.933192 -1.71264 
419 1 -0.383848 -0.970078 -0.768066 
1635 2 -0.138979 -1.87527 -1.06885 
502 1 0.414409 -0.563465 -0.989054 
1568 2 1.26926 -1.15425 -1.95923 
1682 2 0.934443 -1.46088 -1.02886 
1266 2 1.82079 -0.984818 -1.12733 
1819 2 2.71169 -0.822448 -1.03593 
846 1 3.11888 -1.41793 -1.64506 
518 1 3.96667 -1.18067 -1.49309 
629 1 3.46614 -1.87303 -0.895101 
279 1 5.05524 -0.80631 -1.82917 
1445 2 5.29517 -1.84828 -1.7649 
962 1 5.01555 -1.01143 -0.968824 
737 1 -5.89671 -0.420396 -1.8066 
983 1 -5.87776 -0.725297 -1.12227 
692 1 -4.83695 -0.504228 -1.19281 
472 1 -3.5205 0.463488 -1.89657 
969 1 -3.89756 -0.159802 -0.907177 
1310 2 -3.28343 -0.523003 -1.869 
259 1 -3.01621 0.244576 -1.13629 
1972 2 -2.38449 -0.53479 -1.21353 
189 1 -2.36165 0.774238 -1.31296 
1432 2 -1.59707 -0.0190924 -1.46884 
1589 2 -0.997131 0.329763 -1.70072 
1149 2 -0.86724 -0.0225538 -0.738003 
121 1 0.413728 -0.371468 -1.94217 
776 1 -0.366217 -0.633015 -1.7955 
2043 2 -0.314604 0.413692 -1.32599 
625 1 1.15812 -0.189384 -1.40631 
1858 2 3.05832 -0.128643 -1.9294 
601 1 2.04064 0.349945 -1.27346 
50 1 2.97208 0.554264 -1.04953 
721 1 1.80359 -0.0413407 -0.572706 
1508 2 4.0325 0.10755 -1.77602 
1360 2 3.51494 -0.281778 -1.04753 
1897 2 4.61462 0.0355746 -1.14733 
1672 2 5.67751 0.0472878 -0.577749 
1398 2 5.39524 0.338086 -1.34194 
2038 2 -5.33524 0.405072 -0.797634 
1229 2 -4.94907 1.15008 -1.98821 
1564 2 -5.60626 0.695005 -1.48169 
1803 2 -3.89734 1.39024 -1.43308 
1622 2 -4.67488 0.970136 -1.20131 
1720 2 -3.40253 1.18968 -0.733374 
1679 2 -3.13014 1.77008 -1.64073 
921 1 -2.81326 0.852427 -2.10522 
2047 2 -2.8237 1.65071 -0.957083 
613 1 -1.92133 1.29574 -2.00589 
115 1 -1.40825 1.03989 -0.975303 
1187 2 -0.119048 0.826174 -2.02026 
134 1 -0.598971 1.46622 -1.28229 
823 1 0.21919 1.86605 -1.49921 
1386 2 0.745177 0.582314 -0.938461 
1373 2 1.57955 1.15941 -0.88872 
1681 2 0.854507 1.04606 -1.80765 
1297 2 1.59636 1.26549 -1.96192 
44 1 0.969998 1.81746 -0.655393 
1134 2 2.26792 1.6244 -1.65263 
243 1 2.6938 0.818746 -2.03598 
1368 2 3.25599 1.81774 -1.03532 
783 1 3.42708 0.955752 -1.67117 
837 1 4.17678 0.918126 -0.819523 
761 1 5.80543 1.63025 -1.48163 
464 1 4.46155 1.33522 -1.83102 
95 1 5.91026 1.36935 -0.672491 
935 1 4.91121 1.30948 -1.02993 
351 1 -5.38346 2.0485 -1.89902 
1757 2 -5.63693 3.11302 -1.71122 
1003 1 -5.09344 1.91067 -0.96878 
1811 2 -5.08566 3.28182 -1.14628 
446 1 -4.6439 2.37236 -1.56759 
1000 1 -4.06582 2.23389 -0.785004 
966 1 -3.55383 2.74821 -1.68024 
381 1 -2.72638 3.22125 -1.62145 
294 1 -2.23049 3.14387 -0.778023 
739 1 -3.13759 2.61217 -0.890098 
1304 2 -1.30734 2.46094 -1.32012 
1981 2 -2.17124 2.18592 -1.30917 
2023 2 -1.27795 2.11981 -0.570912 
1983 2 -0.589464 3.04393 -1.86654 
1268 2 0.325194 3.183 -1.53503 
1974 2 0.624051 2.85301 -0.653396 
1616 2 -0.427399 2.50975 -1.02684 
660 1 0.923446 2.3089 -1.84485 
747 1 1.60369 2.33749 -1.29593 
582 1 3.39049 3.15616 -1.17355 
945 1 2.56391 2.77799 -1.18912 
1838 2 3.16993 2.06105 -1.80995 
1866 2 4.14714 2.13184 -1.10975 
1333 2 5.65783 2.70631 -1.16289 
1636 2 4.90285 2.38818 -0.802797 
1330 2 4.63086 2.628 -1.69124 
13 1 -5.7058 4.12075 -1.59505 
132 1 -4.93488 4.30222 -1.06056 
1056 2 -4.29707 3.60857 -1.51822 
1814 2 -3.61526 3.83573 -1.1295 
1287 2 -2.81305 4.17213 -1.17308 
925 1 -1.48379 3.39571 -1.20103 
418 1 -0.908679 3.9811 -1.4946 
1601 2 -1.87688 4.43723 -1.11183 
733 1 -0.0542441 4.27096 -1.80239 
224 1 -0.631124 3.50922 -0.873955 
627 1 0.0328902 3.94976 -1.11897 
1997 2 1.68638 3.82976 -1.62415 
905 1 0.970253 4.33592 -0.724749 
1913 2 1.10565 3.33634 -1.2575 
564 1 0.681624 4.6658 -1.4681 
1428 2 2.22834 4.03969 -2.2221 
1161 2 3.10107 4.46488 -1.82611 
1610 2 1.85928 3.64078 -0.774543 
1178 2 2.55701 3.96026 -1.27303 
1234 2 3.50465 4.46338 -0.941711 
690 1 3.80838 3.83991 -1.54074 
1109 2 4.43882 4.70897 -1.16792 