ITEM: TIMESTEP
31400
ITEM: NUMBER OF ATOMS
2048
ITEM: BOX BOUNDS pp pp pp
-5.9314671252164102e+00 5.9314671252164102e+00
-5.9314671252164102e+00 5.9314671252164102e+00
-5.9314671252164102e+00 5.9314671252164102e+00
ITEM: ATOMS id type x y z 
14 1 -4.66311 -5.84732 -4.60988 
333 1 -4.83648 -5.66687 -5.40536 
1390 2 -5.1774 -4.60139 -5.28913 
1227 2 5.83486 -5.11478 -4.8218 
346 1 -3.70853 -5.5911 -4.33685 
508 1 -3.98549 -5.41351 -5.13876 
902 1 -2.41318 -4.82533 -5.36309 
1329 2 -1.81338 -5.89764 -4.93139 
5 1 -3.03841 -5.16833 -4.8417 
1551 2 -0.802532 -5.60695 -4.77644 
1029 2 -1.18483 -5.44748 -5.5368 
1571 2 -0.375157 -5.10556 -5.35977 
1338 2 0.23835 -4.9422 -4.84292 
428 1 1.15546 -5.39679 -5.65761 
1013 1 0.946453 -5.82053 -4.80929 
442 1 2.16316 -5.02447 -5.66291 
1542 2 1.05865 -4.57209 -4.79771 
673 1 1.68627 -5.34401 -4.98528 
496 1 2.72943 -5.03748 -5.01967 
1901 2 4.14239 -5.63703 -5.1685 
707 1 3.6066 -4.83125 -4.84586 
1239 2 4.78541 -5.26574 -5.50112 
1090 2 4.22803 5.85634 -4.2611 
2003 2 5.6173 -4.95332 -5.56937 
1249 2 -4.41845 -4.21439 -5.40252 
809 1 -4.57853 -3.48073 -4.54731 
684 1 -5.39903 -3.53427 -5.52885 
373 1 -5.48734 -3.76881 -4.63442 
1559 2 -3.40856 -4.12324 -4.69379 
1467 2 -3.63417 -3.99857 -5.56433 
91 1 -3.36391 -4.96179 -5.69833 
1472 2 -2.81275 -3.81192 -5.30185 
1617 2 -2.34473 -3.94066 -4.73335 
1711 2 -1.67736 -3.74841 -4.19705 
530 1 -1.83252 -4.34986 -5.86204 
855 1 -1.51626 -4.43622 -5.10429 
1 1 -0.742562 -4.16603 -5.30451 
413 1 -0.129661 -3.6321 5.81645 
782 1 0.705234 -3.28634 -5.7768 
819 1 0.275723 -3.64682 -4.99803 
1035 2 0.674844 -4.61921 -5.62763 
1236 2 1.64918 -4.20584 -5.29963 
1260 2 2.91448 -3.71359 -5.58265 
1198 2 3.44995 -3.55087 -4.90476 
1081 2 2.59445 -4.05354 -4.80339 
1528 2 3.95367 -3.26365 -5.65683 
1887 2 4.34583 -3.51321 -4.54334 
180 1 4.45425 -4.51072 -4.73051 
481 1 4.80212 -4.03392 -5.29514 
280 1 5.6589 -3.91862 -5.4692 
242 1 5.54268 -4.20932 -4.61707 
1745 2 -5.2004 -2.16441 -5.31875 
1491 2 -5.06742 -2.43516 -4.40316 
283 1 -4.81153 -2.83077 5.75429 
353 1 -4.01543 -3.04597 -5.79296 
196 1 -3.7654 -3.06422 -4.92443 
622 1 -4.74992 -3.13081 -5.32215 
402 1 -2.72932 -2.88166 -4.52622 
218 1 -3.16341 -2.77702 -5.40309 
2009 2 -1.64787 -3.37911 -4.992 
1515 2 -0.747748 -3.08221 -5.1046 
595 1 -1.92326 -2.42303 -4.75415 
967 1 -2.37287 -2.26572 -5.3952 
35 1 -1.02339 -2.19896 -4.58065 
1197 2 -1.2992 -2.8522 -5.83567 
1820 2 -0.277512 -2.62869 -5.66731 
1555 2 -0.119975 -2.92846 -4.39825 
1250 2 0.446894 -2.17552 5.92151 
1533 2 0.433555 -2.50106 -4.89972 
122 1 1.65409 -2.9945 -5.64641 
1698 2 1.12224 -2.1416 -5.25436 
547 1 1.12552 -3.29238 -4.94217 
904 1 3.4741 -2.4772 -5.13084 
779 1 2.8548 -2.42426 -5.80881 
939 1 2.39614 -2.90139 -5.08926 
706 1 3.72103 -2.14609 5.84977 
475 1 4.24625 -2.1615 -5.06807 
277 1 4.42613 -1.8273 -5.84718 
1341 2 4.69666 -3.0166 -5.3048 
1705 2 -5.81838 -2.61254 -5.03041 
1929 2 5.47709 -2.59437 -5.61059 
1995 2 5.30059 -3.09625 -4.74252 
385 1 5.25913 -1.92809 -4.75889 
609 1 -4.40151 -0.715785 -5.54967 
562 1 -5.16193 -1.04026 -5.22893 
1475 2 -4.86152 -1.66622 5.56434 
1588 2 -4.21048 -1.80884 -5.76361 
1975 2 -3.40234 -1.86455 -5.07543 
701 1 -4.28821 -1.19284 -4.77698 
1271 2 -2.66029 -1.31932 -4.95864 
1713 2 -2.62138 -1.0072 -5.90357 
1243 2 -1.96438 -1.02415 -5.25945 
1414 2 -1.05372 -0.664781 -5.30243 
8 1 -1.48439 -1.97574 -5.42623 
1355 2 -1.5008 -0.663263 5.85589 
367 1 -0.576307 -1.64442 -5.52482 
788 1 0.199163 -1.20044 -5.8818 
768 1 0.626127 -0.541859 5.22113 
674 1 0.800754 -1.15752 -5.33589 
404 1 1.64472 -0.90777 -4.84459 
1401 2 2.30977 -1.50397 -5.7993 
1676 2 3.33702 -1.18584 -5.53717 
1935 2 1.27135 -1.84359 5.7944 
1190 2 3.85927 -1.41752 -4.7482 
1257 2 4.49674 -0.987254 -5.07058 
33 1 5.09908 -1.55436 -5.62586 
403 1 5.96353 -1.44529 -4.99017 
1110 2 -4.6111 -0.19953 -4.47231 
2036 2 -5.11496 0.0303617 -5.26232 
117 1 -3.93871 -1.11149 -4.0486 
1111 2 -4.14441 0.306711 -4.89689 
833 1 -3.6908 -0.791781 -5.23802 
505 1 -2.53248 -0.217109 -4.59856 
212 1 -3.05917 -0.194318 -5.54255 
769 1 -2.64885 0.338434 5.75769 
374 1 -2.09964 0.00233444 -5.25311 
244 1 -1.14671 0.556413 -5.43467 
451 1 -0.526585 0.503082 -4.61534 
1809 2 -0.285326 -0.263627 -5.40146 
1631 2 0.356845 0.120192 -5.83773 
1570 2 0.342798 -0.418993 -4.71585 
1785 2 0.912485 0.017424 -5.20037 
916 1 1.14992 -0.900396 5.84181 
758 1 2.69606 0.0122649 5.74634 
334 1 2.06565 -0.456083 -5.66201 
2041 2 1.88044 0.349662 -4.95973 
31 1 1.73199 -0.294324 5.33477 
105 1 3.15503 -0.122349 -5.35622 
908 1 4.03717 0.289227 -5.68589 
1725 2 5.89443 -0.382541 -4.91877 
469 1 -5.65811 1.26845 -5.77143 
230 1 -4.46475 1.30998 -4.53316 
1343 2 -3.05443 0.634591 -4.98074 
109 1 -4.11066 1.90156 -5.53209 
1736 2 -3.76807 0.814894 -5.35588 
689 1 -3.57685 1.7351 -4.80281 
1346 2 -4.54767 0.500221 -5.68784 
1498 2 -2.47503 1.16554 -5.24967 
752 1 -2.95179 2.10349 -5.04132 
1256 2 -2.12166 0.929163 -4.50193 
2001 2 -1.25511 1.20136 -4.23987 
1058 2 -1.30997 1.64509 -5.10671 
827 1 0.125475 0.986269 -5.1841 
380 1 1.39563 1.1641 -5.12198 
401 1 0.677364 0.989756 -4.50045 
1180 2 1.51513 0.377879 -5.7062 
1502 2 2.66124 0.592314 -4.80836 
1314 2 2.33829 0.802875 -5.72967 
869 1 3.01065 2.10577 -5.37482 
1210 2 3.26617 0.907133 -5.34702 
1470 2 4.09435 1.43613 -5.18764 
1572 2 3.67771 1.02163 -4.45969 
1953 2 4.72318 1.81282 -5.70383 
195 1 4.88358 0.47107 -5.23332 
866 1 -5.48262 0.999031 -4.82489 
1204 2 5.22989 1.6849 -5.03713 
1877 2 -5.15655 2.493 -5.30063 
1861 2 -4.40767 2.45609 -4.60302 
190 1 -3.44438 2.37703 -5.67113 
1800 2 -3.73037 3.22903 -5.27587 
1412 2 -4.47264 2.89019 -5.30236 
493 1 -2.62266 2.69308 -5.92624 
815 1 -2.00328 2.36884 -5.16395 
546 1 -1.71141 2.97917 5.93995 
950 1 -1.17224 2.86697 -5.15575 
727 1 -0.919943 3.38078 5.81122 
1999 2 -0.528776 1.59276 -4.5012 
1945 2 -0.64404 2.01819 -5.48318 
1506 2 0.170795 2.1975 -5.20967 
1364 2 1.07985 2.56147 -5.52247 
1979 2 0.903906 2.11583 -4.76053 
1628 2 2.48016 3.08701 -5.37104 
1085 2 1.70422 2.5578 -4.79351 
570 1 2.21956 1.70517 -5.22233 
188 1 4.84465 2.68284 -4.99067 
96 1 3.79968 2.60855 -5.32674 
762 1 4.48131 3.05663 5.84241 
1403 2 -5.82527 2.04286 -5.04249 
7 1 5.62921 2.84474 -4.55873 
396 1 5.4614 3.19136 -5.47607 
926 1 -4.93326 4.04208 -5.78164 
1365 2 -5.1193 4.56531 -4.49167 
369 1 -4.66386 3.91494 -4.92109 
755 1 -5.65778 3.62802 -5.76536 
923 1 -2.94682 4.53164 -5.09703 
69 1 -3.8891 4.2082 -4.87871 
250 1 -4.11268 4.38667 -5.82974 
1482 2 -2.83987 3.51993 -5.50759 
1772 2 -1.91641 3.8236 -5.56284 
221 1 -2.09955 4.71073 -4.81813 
989 1 -3.28593 4.69041 -5.80477 
1476 2 -1.39056 3.8903 -4.87888 
1378 2 -0.603857 4.11421 -4.89514 
1934 2 -1.277 4.25589 -5.84577 
1692 2 -0.0467956 4.5023 -5.69585 
1336 2 -0.517399 4.65597 5.58166 
852 1 -0.388193 3.16114 -5.34034 
1756 2 0.854047 4.84828 -5.31805 
76 1 0.552985 3.50547 -5.53075 
56 1 1.12116 3.49855 -4.89165 
501 1 1.3212 4.06728 -5.52236 
1342 2 2.95129 3.58793 -5.81786 
653 1 2.00133 4.01636 -5.04405 
1002 1 2.72773 4.46144 -5.28216 
1214 2 3.3321 3.46448 -4.87627 
1274 2 4.27941 3.80109 -5.43638 
1146 2 3.71894 3.92881 5.81557 
1088 2 5.90532 4.57277 -5.32602 
1779 2 5.0813 4.07533 -5.08704 
342 1 -5.55741 -5.58227 5.93853 
1207 2 -5.20287 4.97554 -5.30969 
1527 2 -4.33683 5.0962 -4.71347 
1989 2 -3.45833 5.52606 -5.0347 
1311 2 -4.38524 5.2293 -5.55957 
1526 2 -2.636 5.56703 -4.5865 
146 1 -2.35821 4.97268 -5.77169 
1301 2 -2.68507 5.87745 -5.54017 
797 1 -1.44793 5.13937 -5.36894 
836 1 -0.866616 5.01966 -4.75225 
350 1 0.247228 -5.88817 -5.50308 
340 1 -0.602109 5.58153 -5.5672 
1372 2 0.42263 5.09505 5.69563 
1607 2 1.15048 4.70534 -4.41218 
1033 2 1.22829 5.5509 5.54721 
1704 2 3.30025 -5.82982 -5.40807 
777 1 2.14159 4.61213 5.91786 
1955 2 1.48014 5.3438 -5.58169 
1093 2 2.51474 5.6403 -5.26803 
1847 2 3.39167 5.57863 -4.62761 
437 1 4.06164 4.99138 -5.12041 
473 1 3.28247 4.93417 -5.73719 
432 1 3.37473 4.46045 -4.63806 
255 1 4.61222 5.26113 -5.65814 
1203 2 -5.77307 -5.32953 -3.98471 
1931 2 -5.05027 -4.80457 -4.43058 
274 1 -2.80569 -5.42318 -4.03381 
805 1 -4.44241 5.68882 -3.82496 
1534 2 -4.76582 -5.07613 -3.67099 
2000 2 -3.91712 -4.85905 -3.71525 
467 1 -2.05898 -5.01303 -4.61142 
147 1 -2.26939 -5.43281 -3.3426 
497 1 -1.65972 -5.0977 -3.84177 
1353 2 -1.17933 5.8533 -4.20842 
1818 2 -0.700538 5.73784 -3.40941 
1503 2 -0.19666 -5.48239 -4.21536 
1747 2 0.335973 -5.56939 -3.54549 
1984 2 1.97383 -4.43633 -4.33631 
1486 2 0.854293 -4.95182 -4.01936 
1563 2 1.62492 -4.89463 -3.64267 
575 1 2.30522 -5.48022 -4.40457 
43 1 2.18041 5.89665 -3.5249 
1828 2 2.65788 -4.60498 -3.80689 
64 1 2.99877 -5.71272 -3.55034 
931 1 3.22601 -5.36984 -4.21859 
131 1 4.0544 -5.03204 -3.987 
1714 2 4.97384 -5.60759 -4.75704 
2034 2 5.23122 -5.7138 -3.93488 
339 1 5.92487 -4.27273 -3.95622 
75 1 -5.25005 -4.03336 -3.62792 
1411 2 -4.29085 -4.52503 -4.65798 
465 1 -4.32716 -3.66933 -3.81959 
441 1 -3.72374 -3.71718 -3.26415 
1425 2 -3.16917 -4.43435 -3.92598 
1602 2 -2.43135 -4.23022 -3.90606 
1991 2 -2.20029 -4.38415 -3.20175 
1046 2 -3.15486 -4.75501 -3.18574 
107 1 -1.13383 -4.69896 -4.32831 
1881 2 -1.46937 -3.96931 -3.41465 
227 1 -0.412676 -4.16513 -4.51567 
416 1 -0.597664 -4.7349 -3.48308 
249 1 0.0916215 -4.18599 -3.61928 
20 1 0.743418 -3.72038 -4.24786 
938 1 1.43443 -3.69906 -3.80036 
136 1 1.83671 -3.21833 -4.47318 
2004 2 3.39255 -3.97616 -4.20771 
1019 1 2.25969 -3.45532 -3.79582 
2019 2 4.50104 -3.84271 -3.65812 
1592 2 3.67475 -4.10296 -3.47226 
1319 2 5.16228 -3.37012 -3.92436 
284 1 4.98328 -4.76329 -3.99037 
1937 2 -4.87157 -2.7198 -3.59275 
784 1 -5.83617 -2.40251 -2.94696 
1750 2 5.83519 -3.27055 -3.36368 
2032 2 -3.22455 -1.99577 -4.21596 
965 1 -3.48835 -3.31814 -4.14585 
1296 2 -4.13858 -2.33817 -4.12899 
1465 2 -4.24289 -2.18062 -4.99311 
150 1 -2.33598 -2.92065 -3.84386 
151 1 -1.56648 -2.57015 -3.97253 
236 1 -0.708286 -2.21063 -3.79859 
1581 2 -0.889153 -3.35483 -4.10397 
1231 2 0.0513964 -3.21323 -3.64146 
1894 2 0.737512 -2.74267 -3.95016 
1947 2 1.23806 -2.2667 -4.38041 
639 1 2.94504 -2.76521 -4.48542 
1363 2 1.94282 -1.90018 -5.26586 
1923 2 2.03269 -2.01758 -4.4116 
485 1 3.8617 -2.72079 -4.30181 
928 1 4.73603 -2.48437 -4.11784 
1001 1 2.94454 -3.18638 -3.72323 
1483 2 -5.78542 -2.91428 -4.23844 
550 1 5.4327 -2.31104 -3.49261 
771 1 -5.08193 -1.40255 -4.48569 
179 1 5.88023 -1.90081 -4.17037 
205 1 -5.47532 -1.78407 -3.51899 
2035 2 -5.64462 -0.945726 -3.16145 
161 1 -4.65022 -1.36321 -3.75907 
948 1 -3.30915 -1.16281 -3.54667 
1664 2 -2.67347 -2.068 -3.62726 
717 1 -2.52516 -0.794166 -3.71656 
1097 2 -2.00968 -1.48814 -4.28297 
1870 2 -1.42295 -1.22636 -4.6735 
1573 2 -1.91441 -1.72452 -3.42762 
599 1 0.0939997 -1.91871 -3.91598 
657 1 -0.0544491 -1.64943 -4.84673 
1223 2 -1.22992 -1.27138 -3.72813 
830 1 0.700018 -1.34024 -4.53902 
421 1 1.30484 -1.3229 -3.94017 
691 1 2.51361 -1.31437 -3.19905 
427 1 2.07407 -1.05539 -3.91941 
1946 2 2.84576 -1.65463 -4.88219 
1259 2 2.84421 -1.98405 -3.98606 
1083 2 4.57593 -1.39914 -4.01734 
1738 2 3.73354 -1.83183 -3.95564 
1128 2 4.09577 -1.78868 -3.18608 
42 1 3.12165 -0.866242 -3.63502 
2014 2 5.13022 -0.859947 -4.36503 
1775 2 5.26526 -1.24501 -3.47686 
1634 2 5.85992 -0.679496 -3.94266 
1030 2 -5.29941 -0.346377 -4.05623 
1792 2 -4.19454 -0.0808091 -3.68527 
278 1 -5.6682 0.546294 -3.74331 
2048 2 -3.65162 0.233686 -4.34172 
1184 2 -3.5925 -0.214921 -3.05686 
214 1 -3.32631 -0.784535 -4.46471 
1754 2 -3.04459 0.0703583 -3.73515 
1104 2 -2.49309 0.145812 -3.09445 
1310 2 -3.04974 -0.299288 -2.45747 
848 1 -1.79294 -0.236649 -4.23703 
254 1 -1.35968 0.269875 -4.76635 
789 1 -1.08109 -0.369975 -3.18794 
704 1 -0.856735 -0.00223915 -3.94273 
1500 2 -0.489067 -0.848681 -4.35877 
1673 2 0.397583 -0.661335 -3.8097 
594 1 -0.123924 0.181806 -3.37484 
1644 2 1.32564 -0.00568007 -4.3741 
1057 2 1.29144 -0.359554 -3.39124 
872 1 2.56863 -0.545021 -4.88737 
1963 2 2.24026 0.0129743 -4.12824 
2008 2 2.92205 0.422685 -3.9332 
900 1 4.06215 0.00609847 -4.83854 
125 1 3.44321 -0.452153 -4.34444 
715 1 5.01504 0.0845108 -4.35597 
32 1 5.3929 0.199502 -3.5849 
697 1 -3.82178 1.35072 -3.93234 
397 1 -4.98606 0.788062 -4.17267 
912 1 5.773 0.506085 -4.49811 
824 1 -3.0441 1.67278 -4.1364 
903 1 -2.53899 1.58632 -3.46747 
1876 2 -2.73931 0.742418 -4.1627 
1015 1 -2.20979 2.00149 -4.27526 
1830 2 -1.92317 0.586323 -3.56507 
1550 2 -1.02674 0.957189 -3.48855 
1884 2 0.724024 1.43599 -3.47169 
1962 2 -0.183675 1.48373 -3.5352 
80 1 0.105108 0.389785 -4.11539 
1021 1 0.773517 0.466949 -3.49821 
551 1 1.52654 1.05979 -4.22083 
382 1 2.19769 1.4925 -4.45808 
895 1 1.96232 0.841645 -3.47003 
447 1 3.03754 1.83492 -4.58605 
760 1 3.50026 1.60689 -3.47411 
1172 2 4.37251 0.883444 -3.8424 
1696 2 4.87389 1.2664 -4.40603 
1777 2 5.9126 1.59943 -4.27694 
1986 2 5.31474 1.35208 -3.70174 
676 1 -5.5097 3.44262 -4.80712 
1728 2 -4.3897 2.15951 -3.58545 
1068 2 -5.1294 2.17354 -4.41541 
882 1 -5.39648 3.04823 -3.96998 
1938 2 -2.88338 3.0244 -4.54936 
1512 2 -3.70139 2.57874 -4.1726 
1092 2 -3.19355 2.4656 -3.57173 
322 1 -3.63789 3.35757 -3.16668 
1839 2 -3.64713 2.26851 -2.96968 
1959 2 -2.12616 3.40631 -4.7948 
1794 2 -2.58582 3.04676 -3.77626 
1175 2 -1.79271 3.30088 -4.05091 
982 1 -0.942312 2.20035 -3.65245 
709 1 -1.59159 2.39075 -4.36178 
593 1 0.0411964 2.40775 -3.17439 
1298 2 0.41198 2.0037 -4.07586 
885 1 0.296408 3.23108 -4.73209 
491 1 -0.546919 2.68121 -4.40851 
552 1 0.198788 2.82274 -3.9011 
1054 2 1.34522 2.08139 -4.00718 
896 1 1.81225 3.30126 -3.50744 
1967 2 2.11904 2.54726 -4.17887 
1653 2 2.62513 2.93042 -4.67397 
1461 2 2.89299 2.56937 -3.95805 
574 1 3.94608 2.37914 -4.45358 
1011 1 4.28158 1.95331 -3.72459 
2020 2 3.62621 3.06359 -3.88648 
631 1 5.80374 2.43919 -3.69357 
726 1 4.86776 2.40315 -4.07022 
298 1 -4.55801 3.37898 -4.09639 
1278 2 -4.79733 4.27862 -3.73924 
45 1 -3.6196 3.79791 -3.946 
1417 2 -3.99017 4.66545 -3.60161 
323 1 -2.96202 4.14812 -4.34104 
751 1 -2.19204 4.19251 -4.01233 
460 1 -3.00282 3.90588 -3.45392 
772 1 -1.63844 4.20515 -3.39254 
1142 2 -0.855034 3.52693 -3.9321 
1247 2 -1.07784 3.18177 -3.11474 
1625 2 -0.0742589 3.9859 -4.15063 
1593 2 0.370567 4.4193 -4.98684 
1668 2 -0.219767 3.57836 -3.28843 
1071 2 0.745551 3.78326 -3.16899 
394 1 1.81934 3.64913 -4.36597 
448 1 1.03756 3.13846 -4.14768 
262 1 2.54086 4.0704 -4.42447 
775 1 2.68776 3.74532 -3.51685 
143 1 3.38089 4.22075 -3.75428 
1562 2 4.33058 3.64318 -4.41931 
2039 2 4.55514 3.26406 -3.5897 
370 1 4.33462 4.72093 -4.03544 
1977 2 -5.85967 4.30111 -4.46532 
1072 2 -5.58888 4.10612 -3.6484 
1349 2 5.32681 3.68623 -4.26894 
412 1 -5.49769 5.57703 -4.19001 
166 1 -5.60339 -5.90318 -5.11435 
825 1 -5.07487 5.2698 -3.37986 
1138 2 -3.47485 5.12049 -4.21261 
1008 1 -3.53978 -5.95005 -3.65791 
1510 2 -1.96739 5.59072 -4.0757 
1127 2 -2.6355 5.1456 -3.65114 
276 1 -0.882751 4.49858 -3.6273 
1038 2 -1.56558 5.42076 -3.37088 
123 1 -1.47676 4.64051 -4.19302 
41 1 -0.287863 5.05052 -4.08305 
638 1 0.0745607 5.43031 -4.85281 
612 1 0.449725 4.96048 -3.4527 
2040 2 0.753009 4.21517 -3.94321 
959 1 1.52314 5.95003 -4.10739 
165 1 0.574904 5.45559 -4.17865 
1145 2 1.83925 5.14484 -4.82938 
1042 2 1.91695 4.72781 -3.90154 
1764 2 2.60346 5.22982 -4.4168 
1875 2 3.55447 5.32681 -3.72885 
1846 2 4.58673 5.61618 -3.50591 
835 1 4.83047 5.01837 -4.80521 
699 1 5.51228 5.44172 -5.01581 
662 1 5.71993 5.20004 -4.03277 
181 1 5.1162 4.72753 -3.67142 
1612 2 -4.92376 -5.45745 -3.01514 
1192 2 -5.7742 -5.73535 -3.03621 
1126 2 -4.78226 -5.77698 -2.34413 
273 1 -5.2776 -4.52898 -2.58293 
2016 2 -5.62589 5.823 -2.28358 
1548 2 -4.10428 -5.28939 -2.89215 
119 1 -2.94143 -5.81163 -3.04611 
1047 2 -3.36812 -5.0257 -2.44696 
974 1 -1.73452 5.79122 -1.8752 
260 1 -1.27708 -5.21933 -3.1343 
229 1 -1.01007 -5.50085 -2.32587 
1014 1 -1.89431 -5.68226 -2.65903 
1928 2 0.0427675 5.77221 -2.80127 
1543 2 0.899172 -5.93249 -2.31788 
295 1 0.164062 -5.06905 -1.87962 
305 1 -0.163586 -5.04265 -2.64291 
1344 2 1.07915 -5.48274 -3.01098 
1957 2 1.77437 -5.37254 -2.34637 
459 1 0.949632 -4.67119 -2.17505 
2017 2 3.09405 -4.4862 -3.19738 
1749 2 2.72998 -5.07716 -2.44199 
1915 2 2.17938 -4.9536 -3.08962 
667 1 3.95889 -5.50228 -3.16189 
847 1 3.6612 -5.77712 -2.37439 
955 1 5.22095 -5.19172 -2.5139 
19 1 4.76796 -5.02517 -3.22795 
798 1 5.83837 -4.83377 -2.2707 
251 1 -4.47817 -4.06057 -2.84304 
878 1 5.73347 -4.60998 -3.08938 
269 1 -4.22514 -4.41252 -2.02909 
71 1 -3.6415 -3.87606 -2.57551 
634 1 -2.75298 -3.4697 -3.37232 
753 1 -2.73663 -3.69276 -2.59152 
1394 2 -2.49161 -4.75007 -2.47213 
1848 2 -0.70757 -3.7752 -3.28288 
1079 2 -1.58767 -4.31623 -2.64982 
1896 2 -0.635581 -4.14031 -2.50171 
954 1 0.459735 -4.54421 -2.89719 
1942 2 0.10917 -3.64329 -2.65533 
257 1 1.66702 -4.05893 -2.60449 
569 1 0.981525 -4.13068 -3.33279 
1658 2 0.833396 -3.47289 -2.29347 
981 1 3.09075 -3.44731 -2.85393 
934 1 2.26735 -3.73854 -3.03491 
1657 2 4.32267 -4.21066 -2.79821 
1232 2 3.60899 -4.74947 -2.52756 
1737 2 4.61951 -4.33415 -2.06159 
1871 2 5.16168 -3.75198 -2.94427 
1836 2 5.44611 -4.05984 -1.84988 
1655 2 -5.87246 -3.66928 -2.76698 
1851 2 -4.87536 -3.36451 -2.09459 
1817 2 -5.10727 -3.16655 -2.79049 
471 1 5.28996 -2.67818 -2.68008 
140 1 -4.75929 -1.81072 -2.94776 
1545 2 -4.27272 -2.78143 -2.99938 
1442 2 -4.16455 -2.96152 -2.06921 
636 1 -4.28034 -1.97613 -2.0993 
1867 2 -2.62994 -2.33002 -2.82671 
1902 2 -3.42411 -2.52345 -3.2145 
1478 2 -3.22285 -2.80767 -2.40477 
816 1 -1.9369 -3.08601 -3.15329 
677 1 -0.806204 -2.81062 -3.06394 
411 1 -0.986255 -3.10255 -2.13604 
398 1 -1.79882 -3.3953 -2.42543 
1911 2 -2.42275 -2.69816 -1.97813 
313 1 -0.0641619 -2.32298 -3.05171 
1457 2 0.936381 -2.97559 -3.11056 
844 1 0.51327 -2.19403 -2.58687 
388 1 -0.0473287 -2.76358 -2.17561 
1263 2 1.74608 -2.48119 -3.77438 
1878 2 1.79464 -2.80152 -2.98338 
597 1 1.38583 -1.97995 -2.35599 
1580 2 2.55607 -2.25571 -3.35434 
1645 2 3.40486 -2.08709 -3.05733 
1787 2 2.57779 -2.66666 -2.56854 
352 1 3.95273 -3.29996 -2.50771 
1641 2 3.40973 -2.41583 -2.19365 
914 1 3.82105 -3.07683 -3.45093 
754 1 4.51199 -2.64993 -3.31881 
311 1 4.69275 -3.06011 -2.49733 
1279 2 -5.13871 -1.16849 -2.3148 
1163 2 -4.79201 -0.644577 -3.16642 
344 1 -3.41629 -1.93375 -1.64598 
592 1 -4.021 -1.59856 -3.215 
917 1 -3.50719 -1.65417 -2.55929 
1978 2 -4.588 -1.05387 -1.86157 
37 1 -2.66565 -1.18812 -2.74178 
1908 2 -1.7344 -2.1247 -2.80227 
1537 2 -1.56893 -2.37447 -1.92277 
234 1 -1.86841 -1.38946 -1.95946 
1345 2 -0.291952 -1.01354 -3.40779 
1456 2 -0.953967 -1.73372 -2.76349 
1517 2 -0.106172 -1.34408 -2.48326 
1804 2 0.690431 -0.922921 -2.96648 
287 1 0.809382 -1.88178 -3.32322 
705 1 1.70045 -1.47416 -3.09391 
2046 2 1.57764 -0.767945 -2.3024 
377 1 2.27732 -1.70826 -2.30587 
640 1 3.36002 -1.11293 -2.79838 
700 1 3.93187 -0.749741 -3.45488 
116 1 3.78517 -1.30756 -1.85668 
198 1 4.2006 -0.803446 -2.45082 
1299 2 4.85393 -1.60792 -2.63013 
1237 2 5.73381 -1.24689 -2.6377 
1286 2 5.31489 -1.82935 -1.94208 
299 1 -5.20715 0.139081 -2.95682 
654 1 -5.44239 -0.0459798 -1.98528 
1350 2 -3.97641 -0.631267 -2.40715 
1826 2 -4.01173 -1.11027 -1.0972 
818 1 -4.46815 0.462878 -2.49561 
1206 2 -3.3076 -0.763145 -1.75383 
1025 2 -2.2206 -0.169317 -2.21455 
499 1 -1.93064 -0.787888 -3.01123 
1834 2 -1.21014 0.292291 -1.89842 
615 1 -1.22427 -0.832329 -2.46697 
886 1 -0.172078 -0.18358 -2.68664 
121 1 0.261529 -0.236896 -1.72996 
517 1 0.545321 0.218229 -2.76148 
749 1 0.979531 0.115425 -1.85842 
1832 2 2.77217 -0.431424 -2.51795 
1952 2 2.04286 -0.264742 -3.02691 
1529 2 3.03819 0.0577089 -3.17035 
1220 2 4.70913 0.737138 -2.97406 
2027 2 3.67627 0.480744 -3.33494 
241 1 4.39728 -0.225811 -3.90617 
1059 2 4.14756 0.326428 -2.6009 
708 1 5.82077 -0.0375094 -2.90089 
297 1 4.83722 -0.317608 -3.12902 
1361 2 -5.21672 1.73348 -3.81905 
1282 2 -4.94033 1.51906 -3.0556 
2030 2 -5.55838 1.01511 -2.52968 
94 1 -4.408 0.784796 -3.44888 
1803 2 -4.00081 1.43207 -1.88148 
164 1 -3.55084 1.0047 -3.13714 
686 1 -3.06672 0.837138 -2.39744 
613 1 -2.04083 1.00677 -1.97838 
310 1 -2.57965 1.29339 -2.79303 
719 1 -1.71682 1.76596 -3.52813 
1643 2 -1.53641 0.320696 -2.74063 
494 1 -1.70258 1.51883 -2.73231 
1436 2 -0.831715 0.726478 -2.71643 
1683 2 0.0101325 1.12317 -2.74339 
240 1 -1.19425 1.35181 -2.00757 
1187 2 0.285933 1.0089 -1.93636 
90 1 1.33768 0.530164 -2.63112 
1642 2 1.46741 1.82052 -3.23795 
1158 2 2.29543 2.2159 -3.19031 
1050 2 1.10489 1.40206 -2.31588 
842 1 2.33744 0.746398 -2.5651 
894 1 2.71716 1.32392 -3.75471 
1994 2 2.02128 1.87623 -2.32754 
232 1 4.32168 1.72762 -2.8274 
621 1 3.10985 1.24532 -2.83534 
1468 2 5.4439 0.956254 -2.51736 
1320 2 -5.81096 1.31941 -3.29734 
944 1 4.85578 1.78847 -2.19197 
731 1 -5.27792 2.66308 -3.05879 
204 1 -4.58781 3.04375 -3.20785 
351 1 -5.43103 2.23823 -2.21543 
1654 2 -4.17889 1.6438 -2.64128 
568 1 -3.76686 3.12496 -2.35231 
879 1 -4.60831 2.72153 -2.1758 
2021 2 -2.70029 2.43335 -2.85849 
1689 2 -1.91999 2.40702 -2.27462 
1679 2 -3.39195 1.98078 -2.14381 
1415 2 -1.94905 2.76106 -3.27058 
1485 2 -0.990017 2.8239 -2.22533 
301 1 -0.747224 2.09882 -2.92966 
478 1 0.285694 2.2278 -2.44475 
1997 2 0.835372 3.51213 -1.63377 
561 1 0.910868 2.79704 -3.15403 
660 1 1.13859 2.50218 -2.07647 
937 1 1.68551 3.12204 -2.52776 
1769 2 3.04703 2.57042 -3.06277 
828 1 2.48476 3.13304 -1.85591 
1105 2 3.87118 2.76885 -3.22988 
1065 2 3.78619 2.42574 -2.28998 
1686 2 4.50127 2.85428 -2.64867 
171 1 5.06889 2.15588 -3.20092 
702 1 5.83782 2.12586 -2.74278 
1662 2 5.25935 3.20201 -2.45005 
1670 2 -4.8539 3.95282 -2.95668 
1333 2 -5.3951 3.08728 -1.46154 
443 1 -5.53136 4.78038 -2.50586 
1048 2 -4.00036 4.19096 -2.66928 
1971 2 -3.5788 4.10786 -1.84778 
1757 2 -5.25824 3.59441 -2.09821 
381 1 -2.98892 3.56042 -2.54542 
111 1 -2.22695 3.77763 -3.05235 
1419 2 -2.75472 4.36601 -2.00539 
17 1 -0.9445 4.17244 -2.58849 
733 1 -0.382492 4.15167 -1.88213 
871 1 -0.300734 4.70497 -3.07638 
1183 2 -0.188401 3.29833 -2.56333 
1406 2 0.645899 3.48312 -2.50573 
1267 2 1.39375 4.24842 -3.19053 
1869 2 1.62032 3.9663 -2.07106 
256 1 2.67387 3.37926 -2.649 
1499 2 2.27352 4.54901 -2.77847 
1854 2 3.01224 4.49972 -2.2447 
582 1 3.21782 3.22874 -1.65785 
34 1 4.25958 4.20566 -3.12885 
906 1 3.46643 3.70228 -2.93886 
641 1 3.76048 3.64386 -2.21941 
1786 2 5.45464 3.46655 -3.43272 
918 1 5.67523 4.48921 -2.26472 
742 1 5.187 4.36422 -2.93224 
1554 2 -5.80393 3.51559 -2.76939 
961 1 -4.73708 5.04936 -2.56009 
453 1 -3.97742 5.55244 -3.04254 
1413 2 -3.23528 4.6608 -2.82722 
579 1 -3.62223 5.47689 -2.26869 
506 1 -4.2445 4.94324 -1.80355 
589 1 -2.66257 5.791 -2.26978 
1575 2 -2.3302 4.96257 -2.83276 
1191 2 -0.609708 5.42583 -2.34777 
1339 2 -1.50093 5.0876 -2.56264 
516 1 0.26085 4.50692 -2.38209 
1136 2 0.151714 5.66609 -1.99929 
361 1 1.01599 4.94068 -2.50586 
736 1 1.34268 5.46737 -3.40712 
343 1 1.75479 5.17872 -2.00621 
1926 2 2.75705 4.93518 -3.40205 
182 1 2.89491 5.71569 -2.6338 
487 1 2.01007 5.53139 -2.80327 
422 1 2.45562 5.51155 -1.8882 
1318 2 3.43395 4.90404 -2.8984 
1405 2 3.85604 4.76064 -1.99049 
1489 2 4.76135 4.95126 -1.8191 
1100 2 4.33635 5.23204 -2.68814 
946 1 5.83809 5.0701 -3.22333 
1699 2 5.17927 5.65389 -2.7049 
1362 2 5.57177 5.40358 -1.84082 
504 1 -4.96533 -4.93574 -1.82955 
524 1 -4.21052 -4.79621 -1.35418 
864 1 -4.81675 -5.20137 -0.795356 
724 1 -5.86732 -5.57857 -0.697904 
1272 2 -3.95562 -5.54047 -1.93289 
1285 2 -3.01801 -5.2657 -1.83937 
329 1 -3.3721 -4.65765 -0.991091 
1312 2 -3.27544 -5.69998 -1.10711 
1454 2 -2.19037 -5.01884 -1.79506 
1040 2 -2.55026 -5.37637 -0.899155 
326 1 -1.1596 5.88475 -1.27946 
1477 2 -1.73861 -5.12852 -1.1192 
672 1 -0.399824 -5.39409 -1.57604 
317 1 0.42285 -5.25155 -0.875933 
1611 2 1.3796 -5.8422 -1.60703 
455 1 1.16136 -4.98297 -1.1957 
1530 2 3.19118 -5.10415 -1.59319 
1859 2 2.29602 -5.41072 -1.57634 
1880 2 1.99899 -5.77111 -0.810113 
1765 2 4.09477 -4.77787 -1.7027 
1487 2 3.97208 -5.05125 -0.840796 
1129 2 4.86247 -4.71603 -1.14283 
802 1 -5.52623 -5.24336 -1.46826 
153 1 5.42087 -5.45188 -1.65868 
2010 2 -5.61401 -3.7455 -1.85681 
1948 2 -5.15958 -4.01725 -1.19605 
1449 2 -4.38136 -3.54619 -1.38422 
21 1 -3.29126 -4.11766 -1.7276 
1400 2 -4.28239 -4.02942 -0.398872 
890 1 -2.50664 -3.91698 -1.81074 
875 1 -1.83361 -3.85589 -1.35153 
366 1 -2.55353 -4.20787 -0.883458 
1783 2 -1.25464 -4.61342 -1.90042 
526 1 -0.85376 -3.84226 -0.372837 
1613 2 -0.33925 -4.27136 -1.74651 
1753 2 -0.939967 -4.66222 -0.94768 
1748 2 0.523173 -3.92147 -1.57644 
1535 2 0.817383 -4.10938 -0.757793 
1812 2 1.26602 -3.61811 -1.30308 
661 1 2.48919 -4.02629 -2.07879 
245 1 2.71482 -4.32359 -1.23243 
286 1 1.82041 -4.46503 -1.74442 
1798 2 2.1105 -3.44585 -1.06734 
100 1 3.31002 -3.65244 -2.11039 
328 1 3.41466 -3.93558 -1.25328 
321 1 4.11207 -3.53513 -1.69315 
522 1 4.44174 -3.81163 -0.930535 
1844 2 5.7199 -4.31873 -1.00361 
602 1 5.07301 -3.15611 -1.62196 
213 1 5.22591 -3.43998 -0.871499 
532 1 -5.3687 -2.28355 -2.34316 
58 1 -5.74589 -2.9569 -1.06218 
2007 2 -3.65288 -3.11763 -1.36747 
734 1 -4.79412 -2.69164 -0.826166 
767 1 -5.0397 -2.44042 -1.54417 
99 1 -4.06689 -2.29152 -1.15893 
1993 2 -2.91419 -2.79597 -1.41765 
1077 2 -2.068 -2.73759 -1.14289 
1069 2 -2.76064 -3.27243 -0.868576 
986 1 -1.03875 -3.56509 -1.22331 
1574 2 -1.06691 -2.32566 -1.02054 
1289 2 -0.29077 -1.97898 -0.965611 
11 1 -0.315888 -3.16223 -1.46696 
347 1 0.420917 -2.86956 -1.09763 
998 1 0.772232 -2.58505 -1.81438 
566 1 1.1461 -2.60879 -0.904516 
106 1 1.67079 -2.19137 -1.57338 
1973 2 1.6327 -3.10698 -2.22087 
1066 2 2.83932 -3.20921 -0.868043 
626 1 2.35701 -2.07786 -1.46365 
1708 2 2.57115 -3.04338 -1.82735 
1167 2 3.49501 -2.82036 -1.38189 
1148 2 4.18073 -2.08996 -2.26129 
968 1 5.90513 -2.76908 -1.93746 
1996 2 4.42773 -2.279 -1.38752 
1492 2 5.4022 -2.08926 -1.20651 
1940 2 -5.79664 -1.54933 -1.85996 
1393 2 -5.03042 -1.50013 -1.23287 
1352 2 -4.51754 -1.54622 -0.523633 
548 1 -2.76055 -1.6383 -1.95422 
963 1 -1.81793 -1.73261 -0.890966 
682 1 -2.78014 -1.82713 -1.02081 
1337 2 -3.00873 -0.864423 -0.814103 
419 1 -0.494071 -0.730597 -1.13927 
630 1 -1.20213 -1.19593 -1.55901 
1781 2 -0.682879 -1.98647 -1.90611 
1635 2 0.147095 -1.58494 -1.64146 
1568 2 0.885943 -1.0859 -2.0877 
1682 2 1.03921 -1.4646 -1.22747 
1659 2 1.77431 -1.07851 -1.29575 
867 1 2.7954 -1.44843 -1.89048 
1819 2 2.34853 -0.572256 -1.98681 
1266 2 1.78911 -1.41066 -0.47584 
846 1 3.24331 -1.70356 -1.24292 
518 1 4.40479 -1.27392 -1.16409 
1858 2 3.35677 -0.232907 -1.40457 
279 1 4.73644 -0.805236 -1.77837 
737 1 5.81081 -0.649769 -1.48251 
983 1 5.29671 -1.02561 -0.974761 
489 1 -4.41227 -0.0382755 -1.80541 
692 1 -5.1723 -0.349789 -1.11675 
472 1 -3.74414 0.288606 -1.79762 
259 1 -3.21349 0.219843 -0.974442 
969 1 -4.24522 -0.0718783 -0.812439 
1972 2 -2.47823 -0.590493 -1.46239 
921 1 -2.73029 0.442631 -1.66233 
1893 2 -2.10128 -0.658528 -0.625425 
1432 2 -1.61788 -0.230348 -1.28353 
1589 2 -0.892878 0.162322 -0.910777 
1761 2 -1.23853 -0.380785 -0.202291 
776 1 -0.51026 -0.533825 -2.08229 
1067 2 -0.152362 0.216171 -0.459133 
502 1 0.325742 -0.581574 -0.98855 
625 1 1.22545 -0.278363 -1.04016 
601 1 1.99212 -0.0374378 -0.87856 
408 1 1.92557 0.3936 -1.87195 
50 1 2.80881 0.495558 -1.14407 
1505 2 3.4527 -0.146354 -2.3233 
1897 2 4.42246 -0.166793 -0.931059 
1508 2 4.29137 0.190527 -1.69927 
958 1 5.37433 -0.42547 -2.3125 
1672 2 -5.61604 0.456622 -0.500733 
1045 2 5.04103 0.578726 -1.93175 
2038 2 -4.83679 0.916875 -1.50134 
1003 1 -5.49164 1.79329 -1.29969 
1622 2 -4.79517 0.825463 -0.618926 
1229 2 -4.84609 1.35744 -2.20805 
1720 2 -4.00518 0.985944 -0.992818 
2047 2 -3.22225 1.30742 -1.32982 
115 1 -1.86612 0.90082 -1.14872 
1727 2 -2.65939 1.97477 -1.70989 
585 1 -1.20276 1.12691 -0.770274 
2043 2 -0.410436 0.568913 -1.6906 
1386 2 0.30009 0.541913 -1.03559 
134 1 -0.639263 1.44048 -1.14702 
823 1 0.340614 1.93813 -1.5068 
1373 2 1.53978 0.862385 -0.628942 
1681 2 0.952152 1.07348 -1.38823 
1825 2 2.98906 2.20923 -2.3016 
1297 2 1.79798 1.3854 -1.5604 
1134 2 2.66388 1.70757 -1.54245 
243 1 3.06262 0.831546 -2.04699 
194 1 3.90108 1.24678 -2.23362 
783 1 3.76044 1.03446 -1.42336 
1564 2 -5.77214 0.845847 -1.66849 
761 1 5.46552 1.55568 -1.07374 
464 1 4.6532 1.37652 -1.3846 
811 1 5.71345 1.76347 -1.88939 
446 1 -4.75938 2.10366 -1.53867 
1811 2 -5.60828 2.79439 -0.710701 
1669 2 -4.88798 2.78216 -0.0514596 
1000 1 -4.25712 2.04792 -0.789638 
966 1 -4.03088 2.57254 -1.5498 
294 1 -3.20797 2.91264 -1.67017 
739 1 -3.51914 2.36473 -0.746255 
16 1 -2.72469 2.83807 -0.85656 
1304 2 -1.34828 2.41967 -1.56904 
1981 2 -1.96445 2.09518 -1.04194 
1983 2 -0.581215 2.70326 -1.28178 
1268 2 0.132688 3.12945 -1.74838 
208 1 -0.426158 1.87572 -2.03546 
747 1 1.78693 2.68183 -1.52122 
1974 2 0.913161 3.15681 -0.783323 
44 1 1.09535 2.18046 -1.19486 
945 1 2.51453 2.67172 -1.00212 
510 1 3.46342 2.87939 -0.896141 
1522 2 4.70373 2.59736 -1.69158 
1838 2 3.59209 1.98813 -1.50988 
1866 2 4.21298 2.16055 -0.852148 
1636 2 5.57089 2.52668 -1.17312 
1330 2 5.80361 3.08925 -1.98487 
355 1 -5.06861 4.55589 -1.61421 
13 1 -5.13431 4.01286 -0.581797 
1056 2 -4.72228 3.15196 -0.937786 
1335 2 -4.49297 3.79023 -1.95694 
1814 2 -4.03597 3.51935 -1.26006 
132 1 -4.52444 4.64385 -0.942198 
520 1 -2.35649 3.27812 -1.91981 
1287 2 -3.02234 3.85845 -1.05523 
925 1 -1.93163 3.2617 -1.06754 
2033 2 -2.25999 4.19105 -1.14277 
26 1 -1.59457 3.5979 -2.18659 
418 1 -1.13601 3.67351 -1.46487 
224 1 -0.288706 3.70292 -0.779841 
627 1 0.314057 4.24343 -1.18636 
1099 2 2.34351 3.56749 -0.431477 
905 1 1.00976 4.47219 -0.553966 
1913 2 1.61508 3.56757 -1.02665 
1428 2 2.34896 4.24613 -1.93251 
1161 2 3.18836 4.28069 -1.3636 
1610 2 2.27584 3.94483 -1.17719 
1234 2 4.00158 4.38921 -1.17013 
1178 2 3.10477 3.85167 -0.676831 
690 1 4.25234 3.49318 -1.36616 
650 1 4.73907 3.98467 -2.28487 
993 1 -5.85046 4.28387 -1.34367 
258 1 5.13517 3.89758 -1.4578 