ITEM: TIMESTEP
32700
ITEM: NUMBER OF ATOMS
2048
ITEM: BOX BOUNDS pp pp pp
-5.9378222049371336e+00 5.9378222049371336e+00
-5.9378222049371336e+00 5.9378222049371336e+00
-5.9378222049371336e+00 5.9378222049371336e+00
ITEM: ATOMS id type x y z 
333 1 -4.38659 -5.5147 -5.33744 
1390 2 -5.0621 -5.15972 -4.59159 
1849 2 -5.60152 -4.861 -5.74429 
508 1 -3.50848 -5.32959 -5.20362 
3 1 -3.91094 -5.11927 5.72709 
5 1 -2.66031 -4.93039 -5.07034 
91 1 -3.04054 -4.74397 -5.97901 
1329 2 -1.86824 -5.81794 -4.68208 
1551 2 -0.684054 -5.47369 -4.86894 
1029 2 -0.889963 -5.10101 -5.84728 
467 1 -1.61744 -4.90259 -4.28731 
1151 2 -1.5033 -5.52609 -5.55978 
1571 2 -0.144461 -4.82053 -5.52934 
1486 2 0.713926 -4.76721 -5.06722 
428 1 0.702626 -5.85596 -5.48751 
673 1 1.43801 -5.3098 -5.71818 
959 1 1.42734 -5.90626 -4.91545 
496 1 2.25649 -5.02813 -5.67454 
575 1 2.20733 -5.24999 -4.85924 
707 1 3.2182 -4.93588 -5.05175 
1239 2 4.4818 -5.59683 -5.57817 
2003 2 5.21782 -5.00559 -5.54124 
1307 2 -5.92701 -5.247 -4.84555 
1249 2 -4.67323 -4.52112 -5.12947 
809 1 -5.49165 -4.01308 -4.75737 
622 1 -5.75795 -3.7017 -5.60941 
1467 2 -4.07247 -4.13824 -5.64591 
1472 2 -3.34277 -3.79837 -5.57923 
902 1 -1.82876 -4.64163 -5.10038 
1559 2 -3.83353 -4.37509 -4.87814 
1617 2 -3.1422 -4.1125 -4.62032 
855 1 -1.19942 -4.02541 -5.77272 
2009 2 -2.54178 -3.71701 -5.15034 
1 1 -0.299754 -3.95564 -5.05587 
819 1 0.401039 -3.51553 -5.24853 
1035 2 0.483646 -4.44101 -5.9426 
1542 2 1.40213 -4.25067 -5.46389 
1236 2 2.4225 -3.86766 -5.45926 
547 1 1.24479 -3.38708 -4.77337 
1984 2 1.88606 -4.39968 -4.61145 
1081 2 2.74431 -4.2128 -4.56595 
1260 2 3.24986 -3.7307 -5.39911 
481 1 4.15585 -4.74576 -5.11461 
1341 2 4.54969 -3.39625 -4.56932 
1082 2 3.9634 -3.04744 5.70896 
223 1 3.72365 -4.52042 -5.81832 
684 1 5.65214 -4.16908 -5.10349 
280 1 5.78971 -4.35708 -4.13813 
511 1 4.79336 -4.24981 -5.02243 
1745 2 -4.91657 -2.1235 -5.16845 
1491 2 -4.76785 -2.53361 -4.42204 
1929 2 5.77664 -2.27905 -5.87048 
196 1 -4.56278 -3.50129 -4.77089 
218 1 -3.80841 -3.09543 -5.18617 
1465 2 -3.98584 -2.16565 -4.83756 
402 1 -2.58008 -2.87076 -4.50479 
967 1 -2.92859 -2.44446 -5.16477 
8 1 -1.18924 -1.92651 -5.33429 
1515 2 -0.612541 -3.12114 -4.72471 
1197 2 -1.31858 -3.56875 -4.62026 
1820 2 -0.874791 -2.82267 -5.54596 
1555 2 -0.0728475 -2.59732 -5.1366 
1250 2 0.645547 -2.22185 -5.60032 
1533 2 0.625283 -2.67172 -4.63138 
122 1 1.27424 -3.10172 -5.62488 
939 1 2.76932 -2.39548 -5.70353 
639 1 3.10885 -2.8541 -4.79951 
904 1 3.49811 -2.35191 -5.31106 
475 1 3.99075 -2.59533 -4.35572 
1705 2 -5.62665 -2.64087 -5.09129 
1995 2 5.40922 -2.90134 -4.85906 
1089 2 4.92345 -2.83745 -5.59988 
609 1 -4.19142 -0.792878 -5.35705 
562 1 -4.93096 -1.03543 -5.47028 
1588 2 -3.55754 -1.56116 -5.49307 
1975 2 -2.91692 -1.46174 -4.95406 
1271 2 -1.45525 -1.2966 -4.12787 
1713 2 -2.40297 -1.0419 -5.57298 
1414 2 -1.29101 -0.680633 -5.25874 
367 1 -0.530172 -1.42383 -5.77491 
788 1 0.0112394 -0.912485 5.953 
674 1 0.395943 -1.18088 -5.24525 
916 1 1.26938 -0.80829 -5.38101 
1698 2 1.53465 -1.58074 -5.91636 
404 1 1.99912 -0.375532 -5.42902 
334 1 0.970215 -0.592784 5.71996 
1676 2 2.97226 -1.09824 5.90643 
1363 2 2.37226 -0.979619 5.32686 
1946 2 2.32258 -1.44591 -5.5166 
277 1 4.48165 -2.17609 -5.09664 
1257 2 3.71242 -1.50152 -4.09752 
1982 2 3.04687 -1.33881 -4.98728 
1615 2 4.09233 -1.23552 -4.75767 
33 1 5.24298 -1.47914 -5.50674 
403 1 -5.87345 -1.65337 -4.75338 
2014 2 5.47411 -0.962328 -4.17544 
999 1 -5.79588 -1.1546 -5.45553 
2036 2 -5.18288 -0.0704442 -4.96288 
1725 2 -5.87262 -0.418179 -4.66221 
1346 2 -4.56293 0.293862 -5.51053 
1224 2 -5.53044 0.0849745 -5.71189 
1111 2 -3.93312 0.476766 -5.03895 
833 1 -3.10628 -0.620977 -4.62168 
55 1 -4.46921 -0.490368 5.64832 
505 1 -2.73983 -0.029657 -5.24097 
212 1 -3.48947 -0.425482 -5.67382 
374 1 -1.69937 0.465103 -5.84265 
1243 2 -1.72462 -0.626492 5.90032 
1809 2 -0.595521 -0.227939 -5.40133 
829 1 -0.932286 0.944569 5.76092 
1631 2 0.129997 0.160638 -5.77422 
1570 2 -0.038659 -0.382971 -4.78439 
1785 2 0.901097 0.0881882 -5.02314 
1180 2 0.845876 0.458809 5.67383 
1314 2 1.43179 0.560441 -5.53332 
105 1 2.87557 -0.065373 -5.59261 
1502 2 2.72888 0.930501 -4.84091 
872 1 2.56888 -0.467748 -4.6883 
125 1 2.87925 -0.566333 -3.77035 
195 1 4.35074 0.119374 -4.80252 
900 1 3.65629 -0.354844 -4.24514 
1939 2 5.6156 -0.237155 -5.31814 
302 1 3.84027 0.310885 -5.53229 
138 1 5.07848 0.481788 -5.138 
230 1 -4.50112 1.37076 -5.08609 
866 1 -5.24822 1.01412 -4.94913 
360 1 -5.14367 1.38314 -5.89092 
109 1 -4.24476 1.7234 -5.9293 
689 1 -3.65064 1.77239 -5.14204 
1343 2 -3.078 0.830753 -5.11531 
1498 2 -2.32941 1.29021 -5.5049 
1876 2 -2.41285 0.960863 -4.5941 
1256 2 -1.62352 1.47974 -4.5775 
1058 2 -0.794375 1.85611 -5.12156 
1945 2 -0.903169 2.10084 -5.89183 
1797 2 -1.59653 1.70442 -5.57588 
244 1 -0.463187 0.899872 -5.41428 
827 1 0.410458 0.965489 -4.73781 
482 1 0.635407 1.55945 5.50879 
380 1 0.442684 1.24342 -5.57623 
551 1 1.20811 1.33587 -4.79281 
534 1 1.36959 1.64463 -5.53926 
570 1 2.14065 1.81035 -5.27747 
1226 2 2.31155 0.871029 -5.54607 
1210 2 3.70325 1.00026 -4.71247 
1572 2 4.15028 1.47478 -5.4423 
1953 2 4.81671 2.06308 5.67723 
469 1 5.86996 1.00408 -5.60188 
1470 2 4.91652 1.69487 -5.26297 
1204 2 5.81292 1.91993 -5.11568 
1877 2 -5.24589 2.32414 -5.29194 
1412 2 -5.28685 2.6845 5.75395 
1403 2 -5.27184 2.12086 -4.42048 
190 1 -3.26043 2.31124 -5.80658 
1800 2 -3.62366 2.8266 -5.06844 
752 1 -2.87124 2.19253 -4.96213 
493 1 -2.3671 2.73635 5.89491 
815 1 -2.06271 2.54364 -5.20677 
1938 2 -3.06192 2.98407 -4.42076 
950 1 -1.34838 2.9685 -5.71376 
709 1 -1.17575 2.74565 -4.80482 
1506 2 0.154464 2.14603 -5.0721 
885 1 0.533729 3.41533 -4.39431 
491 1 -0.222629 3.30296 -5.28192 
1979 2 0.863029 2.61674 -5.41177 
1085 2 1.79547 2.63138 -4.86098 
1322 2 1.83857 2.93983 -5.66487 
869 1 3.01951 2.21175 -5.18058 
1653 2 2.66467 3.13821 -4.9289 
118 1 3.00414 2.53202 5.87169 
96 1 4.20481 2.40731 -4.99994 
762 1 4.86326 2.98122 -5.60215 
574 1 4.43388 2.16632 -4.06833 
188 1 4.96046 2.72028 -4.72806 
178 1 5.57597 3.3468 -5.66505 
396 1 -5.51058 3.34643 -5.39878 
926 1 -4.69687 3.83011 -5.70738 
676 1 -4.65958 3.67885 -4.98551 
369 1 -3.90063 3.7657 -4.64233 
69 1 -3.91796 4.24122 -5.48965 
250 1 -4.27017 4.46093 5.35448 
923 1 -3.20931 4.28764 -5.1231 
1482 2 -3.32598 3.35373 -5.65196 
1772 2 -2.56176 3.45487 -5.17725 
221 1 -2.02857 4.85625 -4.96776 
1959 2 -2.30586 3.40154 -4.43285 
1476 2 -1.9543 3.87873 -5.59168 
1934 2 -2.61206 3.82713 5.67045 
1336 2 -0.9141 4.10289 -5.35823 
1378 2 -0.392782 4.16197 -4.57843 
852 1 -0.538483 3.31392 5.93791 
1593 2 0.341523 4.67614 -4.83263 
76 1 0.388399 3.71277 -5.93546 
56 1 0.933338 3.60066 -5.15407 
501 1 1.38392 4.17743 -5.8623 
1342 2 2.55689 3.39689 5.88479 
653 1 1.84076 3.86794 -5.11574 
1002 1 2.1814 4.39486 -5.70606 
432 1 2.90394 4.35917 -5.01304 
1214 2 3.59979 3.18052 -4.67126 
1274 2 3.46777 3.59895 -5.5294 
1779 2 5.26518 4.21765 -5.09652 
1073 2 -5.74662 4.75818 -5.87598 
1207 2 -5.07488 4.73514 -5.22647 
166 1 5.70581 5.80215 -5.5593 
1311 2 -4.16401 5.11314 -5.13508 
1606 2 -4.11335 5.54034 5.88951 
2029 2 -3.27394 5.58562 -5.45405 
1989 2 -3.4051 5.34267 -4.61292 
146 1 -2.64306 4.6145 -5.49144 
1301 2 -2.39196 -5.87319 -5.43616 
797 1 -1.30777 5.19716 -4.99333 
836 1 -0.76278 5.0107 -4.27541 
87 1 -0.0504121 -5.90332 -5.78094 
1692 2 -0.141122 4.41083 -5.50181 
350 1 0.681189 -5.40953 5.64404 
340 1 -0.384369 5.51709 -5.05679 
1013 1 0.38653 5.72911 -4.74137 
1756 2 0.94309 4.99406 -5.57922 
1093 2 2.72548 5.87853 -5.34761 
1145 2 1.91104 5.32198 -5.48686 
1901 2 3.65599 -5.74151 -5.48512 
437 1 3.87523 4.82554 -5.13373 
473 1 3.16629 4.77744 -5.68881 
255 1 4.0049 5.21803 5.83669 
835 1 4.66296 5.00179 -5.06578 
514 1 5.68588 5.33317 -4.97209 
440 1 4.97509 5.44616 -5.89114 
1227 2 -5.51695 -5.46279 -3.75833 
1203 2 -4.98399 -5.51041 -2.98418 
1931 2 -4.52348 -5.02052 -3.67731 
14 1 -4.30925 -5.90212 -4.64589 
346 1 -3.36096 -5.50101 -4.30083 
1534 2 -3.98109 -5.09795 -3.00997 
274 1 -2.45886 -5.03546 -4.31145 
147 1 -2.57726 -5.43871 -3.4985 
497 1 -0.975181 -4.94924 -3.54812 
1503 2 -0.368783 -5.74978 -3.76471 
107 1 -1.00565 -4.50062 -4.91439 
1338 2 0.0079554 -5.20871 -4.51631 
1747 2 0.199633 -5.68911 -3.20771 
416 1 -0.266775 -4.74265 -3.10535 
1563 2 1.24933 -4.93293 -4.45738 
1344 2 0.661566 -5.24252 -3.97835 
1915 2 1.48251 -5.25693 -3.30413 
43 1 2.1486 -5.94022 -4.0759 
64 1 3.74651 -5.32948 -3.46671 
931 1 3.05369 -5.38048 -4.21043 
180 1 4.09885 -4.97409 -4.29248 
131 1 4.60716 -5.0945 -3.39211 
242 1 4.92324 -4.64731 -4.1709 
1714 2 5.18662 -5.57629 -4.7923 
2034 2 5.58018 -5.59458 -3.95357 
373 1 -5.01087 -3.99821 -3.98091 
75 1 -4.68886 -4.04443 -3.20782 
465 1 -4.08882 -3.54453 -4.09151 
2000 2 -3.56513 -4.69726 -3.77917 
1411 2 -4.16622 -4.61845 -4.2993 
634 1 -3.29807 -3.39461 -3.54953 
1425 2 -3.14276 -4.75234 -2.78553 
1602 2 -2.74257 -4.31945 -3.69734 
1711 2 -1.81434 -3.94879 -3.63506 
1881 2 -1.182 -4.09112 -3.2049 
1848 2 -0.827811 -3.52057 -3.85691 
227 1 -0.469078 -4.41416 -4.22986 
249 1 0.35703 -4.34705 -3.59011 
20 1 0.501087 -3.86331 -4.35236 
938 1 2.04289 -3.47063 -4.24884 
569 1 1.23718 -3.8977 -3.80136 
1828 2 1.93746 -4.8711 -3.81963 
2004 2 2.97861 -4.44558 -3.69419 
1019 1 2.07199 -3.6919 -3.42994 
1198 2 3.69891 -3.91051 -4.62124 
1592 2 3.43699 -4.51131 -2.98631 
1887 2 4.63721 -3.74456 -3.73594 
339 1 -5.53406 -4.40346 -3.49092 
1937 2 -4.785 -2.88252 -3.52363 
1483 2 -5.64853 -3.07054 -4.20524 
1817 2 -5.4281 -3.30343 -3.27242 
965 1 -3.36648 -3.14805 -4.45607 
1296 2 -3.29759 -2.12431 -4.06926 
595 1 -2.01321 -2.27611 -4.9851 
150 1 -2.54129 -3.29275 -3.56066 
1664 2 -2.44592 -1.71605 -4.16133 
35 1 -0.826905 -2.17327 -4.21101 
151 1 -1.5797 -2.50365 -4.18052 
236 1 -0.159871 -2.1401 -3.67493 
816 1 -2.34509 -3.38368 -2.65137 
1581 2 -2.09208 -3.81799 -4.44192 
1231 2 0.433092 -3.20519 -3.07998 
1894 2 -0.00424947 -3.082 -4.06808 
1947 2 0.992825 -2.66461 -3.88356 
1923 2 1.1782 -2.14824 -4.9628 
136 1 2.16026 -2.91915 -5.01301 
1001 1 2.81588 -3.21785 -4.08508 
1738 2 2.75171 -2.36741 -3.23666 
1580 2 1.91528 -2.46378 -3.89206 
485 1 3.58659 -2.99717 -3.77231 
928 1 4.81316 -2.2171 -4.19926 
385 1 5.18085 -1.89983 -4.70226 
1319 2 5.36078 -3.37711 -4.08393 
550 1 5.36611 -2.45697 -3.50824 
771 1 -5.00711 -1.42013 -4.59 
179 1 5.8854 -2.10928 -4.04027 
1634 2 -5.58454 -0.931034 -3.7388 
701 1 -4.23771 -1.14067 -4.58287 
117 1 -3.6408 -1.22472 -3.96812 
161 1 -5.23334 -1.90112 -3.88184 
592 1 -4.45522 -1.50611 -3.74585 
2032 2 -1.87676 -1.26108 -4.88481 
1097 2 -2.79599 -2.18174 -3.36311 
1870 2 -0.874016 -0.784027 -4.41673 
599 1 0.300753 -1.79984 -4.22295 
657 1 -0.370413 -1.65533 -4.84635 
1223 2 -0.834664 -1.21189 -3.47214 
1500 2 -0.112672 -0.891869 -3.79203 
1673 2 -0.0050575 -1.20739 -2.93655 
830 1 1.02087 -1.3415 -4.47481 
287 1 0.696837 -1.7197 -3.44619 
705 1 1.46002 -1.46731 -3.66013 
421 1 1.79542 -0.969837 -4.62811 
427 1 2.16507 -1.13529 -3.80429 
1259 2 2.124 -1.99116 -4.72194 
42 1 3.52245 -0.572709 -3.33991 
1190 2 2.8161 -1.88007 -4.26813 
1128 2 3.36636 -1.90537 -3.43476 
1083 2 4.58607 -1.17414 -4.23834 
1775 2 5.39302 -1.26266 -3.30659 
1030 2 -5.09125 -0.394157 -4.09568 
278 1 -5.26516 0.511625 -3.36547 
1110 2 -4.43399 -0.0368372 -4.46851 
1792 2 -4.1727 -0.176883 -3.64744 
2048 2 -3.6085 0.241202 -4.17663 
1163 2 -4.8909 -0.742432 -3.26859 
214 1 -2.36279 -0.446163 -4.38609 
1754 2 -2.82689 0.487306 -3.92216 
848 1 -1.89858 0.064097 -5.08252 
254 1 -1.20068 0.546961 -4.94512 
704 1 -1.44935 0.0365807 -4.22347 
451 1 -0.302125 0.54978 -4.49551 
1644 2 0.726921 -0.415685 -4.30776 
80 1 0.338622 0.513447 -3.82125 
2041 2 1.36427 0.0956981 -4.27745 
1057 2 0.788995 -0.644866 -3.38026 
1963 2 1.74618 -0.110464 -3.65328 
2008 2 1.94184 0.451434 -4.79494 
1529 2 3.31688 0.589204 -4.03365 
241 1 4.4306 -0.243986 -3.96988 
1059 2 3.9072 0.43647 -3.37361 
715 1 5.22467 0.170293 -4.25437 
32 1 -5.92975 0.189518 -3.86287 
912 1 5.92277 0.734505 -4.62974 
397 1 -5.04211 0.834405 -4.2685 
1361 2 -5.5265 1.67478 -3.72002 
697 1 -3.59746 1.57622 -4.31789 
824 1 -2.87439 1.89617 -4.18738 
903 1 -2.39599 1.83203 -3.59167 
2001 2 -1.33713 1.19972 -3.81022 
1830 2 -2.00375 0.699774 -3.64087 
1550 2 -0.642275 1.28804 -3.30538 
1999 2 -0.591121 1.49564 -4.1569 
1884 2 1.00174 2.05461 -3.52904 
1962 2 0.220114 1.63494 -3.41831 
1298 2 0.24558 1.83145 -4.23794 
401 1 1.19377 1.07246 -3.87043 
382 1 2.74688 1.76659 -4.28125 
895 1 1.87649 1.50209 -4.41606 
894 1 2.92068 1.46856 -3.43314 
447 1 3.61929 1.98039 -4.3302 
1172 2 4.90302 0.843495 -3.63463 
1011 1 4.85347 1.97892 -3.2784 
2027 2 4.21082 0.886523 -4.07662 
1696 2 4.79948 1.3599 -4.52542 
1777 2 5.6886 1.5985 -4.24393 
7 1 5.72723 2.8876 -4.86349 
882 1 -5.29649 3.26745 -4.48359 
1861 2 -4.49464 2.40246 -4.84923 
1728 2 -3.93627 2.2117 -3.20327 
1068 2 -4.59273 2.0521 -3.7269 
1512 2 -4.04531 2.56036 -4.18628 
1015 1 -1.97941 2.35398 -4.27581 
1092 2 -3.28165 2.55904 -3.5945 
1794 2 -2.50004 3.07672 -3.6646 
982 1 -0.95199 2.61159 -4.02793 
719 1 -1.58999 2.13913 -3.21805 
593 1 -0.176353 2.75244 -3.6092 
552 1 -0.285222 2.9112 -4.48304 
1054 2 0.833652 2.37258 -4.57108 
448 1 0.636582 2.96347 -3.64183 
1642 2 1.93973 2.15583 -3.2437 
1967 2 1.67849 2.47362 -4.11453 
1461 2 2.76197 2.79318 -4.05509 
1158 2 2.60672 2.45476 -3.34609 
1769 2 3.63543 2.90317 -3.74718 
2020 2 4.40289 3.66181 -4.60779 
1105 2 4.37345 3.35002 -3.8211 
631 1 -5.65902 2.82212 -3.8578 
726 1 5.38318 2.50403 -3.8832 
1088 2 -5.69092 4.32523 -4.92879 
1977 2 -5.17693 4.41221 -4.03471 
298 1 -4.54205 3.42945 -3.95718 
1278 2 -4.41122 4.3939 -3.34009 
45 1 -3.25893 4.06545 -4.14725 
204 1 -3.77414 3.5632 -3.67197 
323 1 -2.47067 4.49537 -4.38756 
751 1 -2.59011 4.11858 -3.58332 
460 1 -3.28572 3.55968 -2.91376 
1175 2 -1.53732 3.40985 -3.85934 
1247 2 -0.92697 3.42883 -3.13291 
276 1 -1.00348 4.73787 -3.53082 
123 1 -1.62878 4.51912 -4.15665 
1142 2 -1.57309 3.7453 -4.71469 
1625 2 0.238441 4.18215 -3.87275 
394 1 1.46948 3.51875 -4.42883 
2040 2 1.49966 4.87827 -4.73965 
1042 2 2.1407 4.24616 -2.78462 
1267 2 1.05061 4.41196 -4.1314 
262 1 2.40337 3.9534 -4.39776 
143 1 3.44237 4.30229 -4.42126 
370 1 4.17478 4.44792 -4.09409 
1562 2 4.28877 3.89683 -5.35282 
2039 2 5.2231 3.6364 -4.33709 
1349 2 5.95627 4.13479 -4.17284 
1365 2 -4.47649 4.7016 -4.46259 
412 1 -5.29073 5.75973 -4.82288 
825 1 -4.40384 5.77511 -3.84474 
662 1 -5.26485 5.45238 -4.0364 
1527 2 -3.83589 4.85466 -3.91933 
805 1 -3.54744 5.83642 -3.42144 
1417 2 -2.83586 4.9373 -3.01334 
1526 2 -2.53473 5.72984 -4.50041 
1138 2 -2.87 5.29474 -3.79815 
1510 2 -1.93931 5.63128 -3.81511 
1353 2 -1.16977 -5.84642 -4.05594 
1818 2 -0.587153 5.70503 -2.82839 
41 1 -0.121242 4.83956 -3.12246 
638 1 0.0515525 5.28767 -3.94775 
871 1 0.57163 4.76617 -2.5037 
612 1 0.759813 5.26965 -3.3007 
165 1 1.02985 5.68595 -4.17022 
1607 2 2.11387 4.74749 -3.98953 
1764 2 2.39116 5.18002 -4.70252 
1926 2 3.01381 5.24343 -4.02888 
1090 2 4.31713 -5.86596 -4.79708 
1847 2 3.53402 5.61323 -4.68479 
1875 2 3.81812 5.37188 -3.82705 
1846 2 4.68545 5.8223 -4.00708 
699 1 5.78703 5.23242 -3.98989 
181 1 4.93641 4.86239 -4.17247 
1612 2 -4.66819 -5.7864 -1.64357 
798 1 -5.71394 -5.28363 -1.69876 
1126 2 -4.11867 -5.78806 -0.860339 
1548 2 -4.38508 -5.49903 -2.41032 
1047 2 -3.63673 -5.54207 -1.43153 
1046 2 -3.56578 -5.14033 -2.16038 
1394 2 -2.65462 -4.94516 -2.23289 
974 1 -2.40812 -5.8311 -2.74833 
260 1 -0.906128 -5.21707 -2.67689 
1014 1 -1.70102 -5.25189 -3.34165 
1928 2 0.256025 5.89012 -2.26016 
305 1 -0.398874 -5.21686 -1.94788 
954 1 0.307758 -4.77874 -2.40789 
1957 2 0.832381 -5.68486 -2.78158 
1859 2 2.34777 -5.40524 -1.90122 
2017 2 2.4239 -4.94383 -2.94905 
1749 2 1.65965 -5.40453 -2.45197 
1530 2 3.06059 -5.03005 -2.31684 
19 1 4.11596 -5.53073 -2.65592 
1232 2 3.85836 -4.58803 -2.32646 
284 1 5.46465 -4.74221 -3.20755 
955 1 5.02932 -5.27436 -2.68356 
878 1 5.83795 -4.91734 -2.48387 
273 1 -5.30844 -4.52121 -2.61674 
251 1 -5.05268 -4.63465 -1.84787 
504 1 -5.20047 -4.97086 -1.19828 
2007 2 -4.9782 -3.39371 -2.44558 
441 1 -3.82182 -3.89399 -3.21173 
269 1 -4.24158 -4.46873 -1.52364 
1991 2 -2.34479 -4.37954 -3.00403 
71 1 -4.30329 -4.16931 -2.49697 
753 1 -3.14033 -3.75249 -2.63707 
398 1 -2.67501 -3.87376 -1.70703 
890 1 -3.5927 -4.16498 -1.86057 
1079 2 -1.80308 -4.45393 -2.42618 
1896 2 -0.35308 -3.6429 -3.16754 
1942 2 0.0430149 -3.5651 -2.37531 
1748 2 0.923612 -3.53443 -2.24614 
257 1 1.11505 -4.62844 -1.96502 
1658 2 1.72592 -3.20647 -2.23704 
934 1 0.925164 -4.36676 -2.95237 
981 1 2.55595 -4.00665 -2.66765 
661 1 1.72418 -4.27198 -2.61625 
100 1 3.18201 -3.67408 -2.29315 
2019 2 3.63409 -4.12463 -3.82455 
1657 2 4.30155 -4.18996 -3.06024 
352 1 3.95106 -3.28476 -2.76102 
1750 2 5.1122 -3.95995 -2.6589 
1871 2 5.5546 -4.14059 -1.73095 
1655 2 -5.89024 -3.68812 -2.52942 
1851 2 5.68469 -3.5593 -3.349 
1545 2 -4.33392 -2.97231 -2.90142 
532 1 -5.74005 -2.42394 -2.21279 
1442 2 -3.68701 -2.95265 -2.33482 
1902 2 -4.07936 -2.52137 -3.90352 
917 1 -4.27681 -1.6949 -2.92763 
1867 2 -1.87256 -2.01146 -2.54419 
1478 2 -3.56557 -2.49736 -3.10963 
1911 2 -2.7931 -2.47878 -2.43183 
677 1 -1.92363 -2.81043 -3.42292 
411 1 -1.46039 -3.07751 -2.58793 
1908 2 -1.81997 -2.35995 -1.70075 
313 1 -0.848965 -2.54178 -3.31479 
844 1 0.0842114 -2.21593 -2.93347 
388 1 -0.655765 -2.69937 -2.36498 
1457 2 1.28984 -3.08604 -3.02569 
1263 2 1.92163 -2.60073 -3.02585 
1878 2 2.04716 -3.43526 -1.49589 
1787 2 2.44352 -2.76105 -2.28381 
1645 2 3.24658 -2.39512 -2.47584 
1641 2 3.93815 -2.34023 -1.93151 
914 1 3.05692 -3.44544 -3.12984 
754 1 4.59628 -2.76285 -3.3824 
1148 2 3.99493 -2.12354 -2.84063 
784 1 5.60652 -2.60326 -2.77738 
471 1 4.86274 -2.94435 -2.56698 
311 1 4.53375 -3.36629 -1.90345 
968 1 5.37008 -2.98443 -1.90815 
205 1 -5.48385 -2.17373 -3.17099 
2035 2 -5.57867 -1.17746 -2.88395 
1279 2 -4.73339 -0.918536 -2.40273 
1237 2 5.68695 -1.46702 -2.11537 
1940 2 -5.39289 -1.20054 -1.98267 
140 1 -4.86164 -2.09782 -2.42673 
1206 2 -4.19131 -0.969984 -1.75837 
548 1 -3.45766 -1.35274 -3.09639 
948 1 -2.69321 -0.809991 -3.4971 
37 1 -2.8064 -1.33712 -2.37524 
499 1 -2.17092 -0.881088 -2.76844 
1573 2 -1.84252 -1.72715 -3.42908 
1456 2 -1.05962 -1.70544 -2.77501 
615 1 -1.32515 -0.67874 -2.52602 
1345 2 -0.411107 -1.52285 -2.31423 
1517 2 0.202763 -1.55962 -1.82066 
691 1 1.99773 -1.55077 -2.85155 
597 1 1.01539 -1.99225 -2.72645 
1804 2 0.813667 -1.1478 -2.30061 
2046 2 1.48876 -0.695005 -2.62593 
1659 2 2.34756 -0.41176 -2.1049 
640 1 2.75704 -1.0798 -2.99466 
867 1 2.74279 -1.42925 -2.21784 
116 1 3.65755 -1.13487 -2.67339 
198 1 5.49988 -0.416399 -2.64018 
1299 2 4.42098 -1.6378 -3.56079 
1286 2 5.0048 -1.69806 -2.67957 
1492 2 4.66111 -2.02766 -1.87457 
299 1 -4.16501 0.399503 -2.27553 
654 1 -5.24258 -0.163899 -1.67613 
708 1 -5.06007 0.12659 -2.40351 
1350 2 -4.04547 -0.440062 -2.84935 
489 1 -4.26427 -0.000386031 -1.49476 
717 1 -1.83642 -0.411569 -3.46085 
1184 2 -3.28852 -0.0641341 -3.32521 
1104 2 -2.36793 0.348364 -2.99166 
1025 2 -2.78221 -0.114212 -2.37748 
789 1 -1.0628 -0.255744 -3.26537 
1834 2 -1.07079 0.459695 -1.95425 
886 1 -0.345964 -0.304898 -2.66875 
1643 2 -1.42399 0.681595 -2.81982 
594 1 -0.608676 0.175218 -3.85603 
517 1 -0.151273 0.220168 -3.24077 
1021 1 0.720462 0.224529 -2.87932 
749 1 1.41501 0.303948 -2.16523 
90 1 1.36523 0.816223 -3.14471 
408 1 2.09358 0.823653 -2.71181 
1832 2 2.12849 -0.113624 -2.9406 
1952 2 2.52129 0.361153 -4.09524 
700 1 4.41274 -0.69843 -3.22488 
1505 2 2.95723 0.252791 -3.08436 
297 1 5.25648 -0.239211 -3.42464 
958 1 -5.76382 0.00596217 -2.87675 
1045 2 5.31032 0.43319 -1.67057 
1282 2 -4.52929 1.70197 -2.80911 
2030 2 -5.37024 1.36238 -2.94876 
1320 2 5.62932 1.21418 -3.42301 
818 1 -4.47097 0.741975 -3.29912 
94 1 -4.29356 1.08224 -4.13612 
1654 2 -4.70407 1.1861 -2.07566 
164 1 -3.58346 1.33104 -3.44767 
686 1 -3.46975 0.76825 -2.72928 
310 1 -2.6709 1.38207 -2.97073 
494 1 -1.95617 1.45868 -2.61765 
1436 2 -0.560984 0.864524 -2.54197 
240 1 -1.07301 1.80776 -2.46352 
1683 2 0.304314 1.25261 -2.64214 
1050 2 1.15064 1.72763 -2.63621 
1994 2 2.01077 1.7128 -2.15064 
842 1 2.10144 1.25752 -3.58492 
621 1 2.88648 1.14736 -2.51799 
760 1 3.80561 1.66922 -3.40513 
1220 2 4.12501 0.173109 -2.56336 
232 1 4.67134 1.55693 -2.40385 
194 1 3.65229 1.24385 -2.61833 
1986 2 4.84234 0.5584 -2.85221 
1468 2 5.79345 0.895549 -2.61007 
944 1 5.57612 1.70449 -2.03347 
879 1 -4.83206 2.71834 -2.5561 
702 1 -5.68944 2.58141 -3.05739 
811 1 -5.55936 2.12844 -2.11152 
1839 2 -3.87827 1.72608 -2.26905 
731 1 -4.96469 2.96992 -3.40948 
568 1 -4.15442 3.18796 -2.85135 
322 1 -2.66561 3.46255 -2.13366 
2021 2 -3.07249 2.19591 -2.71774 
1727 2 -2.89505 1.91469 -1.893 
1689 2 -2.18951 2.36772 -2.18588 
1415 2 -2.01824 2.97361 -2.91942 
1485 2 -1.20852 3.02141 -2.41956 
301 1 -0.64076 2.30256 -3.08094 
478 1 1.10286 2.60705 -1.88647 
208 1 -0.0343678 2.24872 -2.42686 
561 1 0.591865 2.68003 -2.82215 
937 1 1.48583 2.87587 -2.75337 
896 1 1.59702 3.38425 -3.53967 
828 1 2.0163 2.67089 -1.8563 
1065 2 3.68552 2.6995 -2.9935 
1825 2 2.70083 2.1654 -2.57315 
1686 2 4.54425 2.98733 -2.98432 
1522 2 4.16143 2.4324 -2.31024 
171 1 5.51093 2.09782 -2.8498 
1662 2 5.76407 3.28991 -2.47129 
1554 2 4.96257 2.74752 -2.15483 
1072 2 5.77145 3.74697 -3.37296 
1048 2 -5.2933 3.82551 -3.3668 
918 1 5.7161 4.50734 -2.52004 
1335 2 -5.10543 3.42793 -1.74572 
1971 2 -4.39608 4.10355 -2.52021 
1413 2 -3.64777 4.52196 -2.77601 
111 1 -2.18762 3.95194 -2.6085 
1419 2 -3.57629 4.28186 -1.92984 
520 1 -1.64364 3.71319 -1.69331 
772 1 -1.6816 4.27944 -3.27001 
17 1 -0.784685 4.45126 -2.85162 
26 1 -1.40149 4.20344 -2.43986 
1668 2 -0.653363 3.7732 -3.8879 
1071 2 0.76735 4.01537 -3.15599 
1183 2 -0.138408 3.65076 -3.23254 
1406 2 0.331761 3.55622 -2.51057 
1869 2 1.49933 4.42945 -3.43056 
775 1 2.30637 3.12089 -2.55431 
256 1 2.85808 2.90691 -1.55326 
1499 2 2.67816 4.78259 -3.30452 
34 1 3.07323 3.84988 -3.67581 
906 1 2.38897 3.5074 -3.52986 
641 1 3.13819 3.50352 -2.54957 
650 1 3.8146 3.99028 -3.18703 
1670 2 -5.34686 3.69335 -2.54731 
1786 2 5.06965 3.36158 -3.43748 
742 1 4.99402 4.0935 -2.47792 
2016 2 -5.54104 5.88778 -2.29333 
443 1 5.3949 4.71515 -3.38644 
961 1 -5.48624 4.90364 -3.12113 
1008 1 -4.02071 5.43701 -2.76923 
119 1 -3.62745 5.19321 -1.62949 
453 1 -4.7188 5.41236 -3.21981 
1127 2 -2.82164 4.57993 -2.15904 
589 1 -3.25441 5.7619 -2.49527 
1575 2 -1.99476 5.21813 -3.14217 
1038 2 -1.32108 5.69014 -3.24712 
1191 2 -1.23351 5.35998 -2.16864 
1339 2 -1.99547 5.0135 -2.36079 
516 1 1.44851 5.30301 -2.51898 
1136 2 0.370689 5.45673 -1.33768 
1543 2 1.09802 -5.85176 -1.73428 
361 1 2.36424 5.57291 -2.71402 
736 1 1.85088 5.55292 -3.3865 
343 1 2.62406 5.51567 -1.8456 
182 1 3.51778 5.73926 -1.72026 
487 1 2.87862 -5.79965 -3.4657 
667 1 3.36518 6.00785 -2.66905 
1854 2 3.45512 4.88738 -2.97694 
1318 2 4.37216 5.20622 -2.99306 
1100 2 4.71527 5.24529 -2.2284 
1192 2 5.85139 5.93617 -3.06168 
946 1 4.66165 4.30202 -3.30689 
1699 2 4.97089 5.77882 -3.18784 
1362 2 5.48087 5.57153 -2.28839 
864 1 -4.61999 -5.16115 -0.137557 
724 1 5.8353 -5.47826 -0.926072 
802 1 -5.42927 -5.32242 -0.310795 
524 1 -4.44368 -4.78796 -0.858756 
1272 2 -3.17262 -5.52118 -0.571446 
1285 2 -2.95275 -5.27449 -1.52179 
1454 2 -2.05346 -4.84932 -1.70889 
229 1 -1.65362 -5.44252 -2.51397 
1477 2 -2.28113 -5.30604 -0.815769 
672 1 -1.12674 -5.49786 -1.78418 
1783 2 -1.36228 -4.92668 -0.631748 
295 1 -0.291049 -5.61759 -1.13489 
317 1 0.615449 -5.61282 -0.451743 
30 1 -1.1413 5.47838 -0.0179336 
459 1 0.507027 -4.99801 -1.46689 
455 1 1.17652 -5.03699 -0.979731 
1880 2 2.64156 -5.66601 -0.79211 
216 1 2.3881 -4.58474 -0.702805 
1864 2 3.10882 -5.33763 -1.29732 
847 1 4.28817 -5.78294 -1.90087 
1765 2 3.85441 -4.94806 -1.44618 
1487 2 4.36092 -4.94606 -0.904715 
1767 2 3.50542 -5.3358 -0.573799 
1129 2 5.12959 -4.60101 -1.12606 
153 1 5.2876 -5.46674 -1.73782 
586 1 4.74908 -5.88848 -1.2 
542 1 5.34872 5.93067 -0.393895 
2010 2 -5.40844 -3.71311 -1.64962 
1948 2 -4.9847 -4.04111 -0.326181 
1449 2 -4.65986 -3.52855 -1.1526 
21 1 -3.60545 -4.51562 -0.910324 
1069 2 -3.91353 -3.52359 -0.677794 
1119 2 -4.28443 -3.34365 -1.85603 
329 1 -2.73182 -4.32171 -0.734535 
366 1 -1.96154 -3.87645 -1.19983 
875 1 -1.65858 -3.38676 -1.81932 
526 1 -1.23598 -3.82926 -0.649563 
1613 2 -1.12822 -3.95056 -2.44237 
1535 2 -0.547983 -4.14714 -1.88266 
1985 2 -1.14458 -4.45366 -1.46481 
1812 2 -0.00171959 -3.713 -1.54203 
286 1 1.85157 -4.6022 -1.34449 
1381 2 0.580566 -4.15009 -0.894255 
245 1 2.37404 -4.2733 -1.9364 
1798 2 1.51146 -3.79555 -0.815658 
1973 2 0.964106 -3.5813 -1.42957 
693 1 3.03723 -4.30871 -1.32017 
1737 2 4.74599 -4.44944 -1.91835 
328 1 3.61999 -4.16613 -0.654474 
321 1 3.88076 -3.78778 -1.47798 
522 1 4.50951 -3.8368 -0.697178 
1836 2 -5.88468 -4.09166 -0.804877 
602 1 5.0799 -3.35455 -1.22572 
636 1 -4.21541 -2.18147 -1.78688 
58 1 5.6693 -3.09237 -0.720165 
734 1 -5.27894 -2.80508 -0.502089 
767 1 -5.7996 -2.7866 -1.51632 
344 1 -3.65503 -1.74518 -2.16562 
99 1 -4.93693 -2.50123 -1.50643 
1537 2 -2.67994 -2.70353 -1.59683 
1993 2 -3.53354 -3.15565 -1.40609 
1077 2 -2.9169 -3.27398 -0.794099 
986 1 -0.954488 -3.11055 -1.42791 
1574 2 -1.13759 -2.35257 -0.917337 
11 1 0.0806441 -2.74415 -1.16552 
998 1 0.0406621 -2.53033 -2.09721 
1781 2 -1.00105 -1.91319 -1.85219 
377 1 1.70354 -2.06942 -1.94969 
347 1 1.09734 -2.50693 -1.22637 
566 1 1.9435 -2.33797 -1.02754 
106 1 0.825337 -2.39323 -2.05288 
1066 2 2.61895 -3.35755 -0.771917 
626 1 2.67428 -2.03059 -1.39153 
1708 2 2.97578 -3.03949 -1.54849 
1167 2 3.82851 -2.73507 -1.26667 
1996 2 4.65333 -2.36662 -0.907704 
1770 2 3.47782 -3.19435 -0.634953 
1501 2 5.58837 -2.1055 -0.674484 
1978 2 -4.86968 -1.55346 -1.27062 
1393 2 -5.67997 -1.66723 -1.13365 
1826 2 -3.59077 -0.921556 -1.1947 
234 1 -2.0005 -1.16918 -1.9088 
682 1 -2.99607 -1.72975 -1.4307 
1337 2 -2.78752 -0.515113 -1.57976 
963 1 -2.25676 -1.61374 -1.00476 
630 1 -1.31371 -0.854332 -1.69882 
419 1 -0.589118 -1.03196 -0.950347 
1635 2 -0.442454 -1.91642 -1.17234 
502 1 0.198381 -0.552335 -1.34146 
1568 2 1.48124 -1.17225 -1.65461 
1682 2 1.49554 -1.49725 -0.622583 
1266 2 2.24063 -1.1526 -1.02223 
1819 2 2.98453 -0.600536 -1.37509 
846 1 3.46769 -1.52369 -1.70852 
518 1 4.8014 -0.759541 -2.36963 
629 1 2.92077 -2.28191 -0.469601 
279 1 5.14632 -0.849527 -1.45662 
1445 2 5.28681 -1.96582 -1.47668 
962 1 4.18546 -1.12351 -1.85921 
737 1 5.8154 -0.441302 -1.73111 
983 1 -5.83492 -0.757875 -0.909962 
692 1 -5.04516 -0.539501 -1.06721 
472 1 -3.49256 0.521366 -1.67963 
969 1 -3.57053 -0.00809523 -0.916529 
1310 2 -3.51847 -0.554915 -2.16134 
259 1 -2.85176 0.54849 -1.24482 
1972 2 -1.94278 -0.140881 -1.54343 
189 1 -1.84441 0.997126 -1.02187 
1432 2 -1.87145 0.225419 -2.26684 
1589 2 -0.537576 0.360408 -1.33629 
1149 2 -0.727257 -0.139842 -0.365575 
121 1 0.421067 -0.10785 -2.14043 
776 1 -0.533655 -0.6489 -1.90236 
2043 2 0.247878 0.367421 -0.74751 
625 1 0.969624 -0.195078 -1.46407 
1858 2 3.18196 -0.169738 -2.25062 
601 1 1.85057 0.184221 -1.4056 
50 1 2.57087 0.272421 -1.02393 
721 1 1.92642 -0.306393 -0.684081 
1508 2 4.5333 0.0996847 -1.75712 
1360 2 3.74915 -0.212444 -1.60208 
1897 2 4.60064 -0.118282 -0.888347 
1672 2 4.85598 -0.259854 -0.0609486 
1398 2 5.38657 0.0801703 -0.748388 
2038 2 -5.61232 0.224056 -0.368038 
1229 2 -5.47651 0.990263 -2.0618 
1564 2 -5.92874 0.638492 -1.25261 
1803 2 -4.18354 1.08108 -1.19793 
1622 2 -4.93956 0.787433 -1.207 
1720 2 -3.04607 1.57737 -0.802562 
1679 2 -3.65726 1.63915 -1.41585 
921 1 -2.77736 0.915351 -2.10065 
2047 2 -2.37569 2.09004 -1.35911 
613 1 -1.95627 1.1692 -1.69389 
115 1 -1.18588 1.37923 -1.67992 
1187 2 0.0762652 0.796072 -1.795 
134 1 -0.515499 1.27933 -1.1033 
823 1 -0.274043 1.77078 -1.85441 
1386 2 0.946879 0.669948 -1.01618 
1373 2 1.70595 0.983172 -0.619299 
1681 2 0.994293 1.24198 -1.71417 
1297 2 1.77986 1.3166 -1.44293 
44 1 0.277641 1.63792 -0.987108 
1134 2 2.88096 1.8132 -1.5431 
243 1 2.52223 0.633909 -1.82519 
1368 2 3.22993 1.52866 -0.752327 
783 1 3.34658 0.735635 -1.74601 
837 1 4.40821 0.933573 -0.839021 
761 1 5.94455 1.67729 -1.20101 
464 1 4.2153 1.00991 -1.71791 
95 1 -5.79034 1.18888 -0.174938 
935 1 4.97822 1.39465 -1.43082 
351 1 -4.95486 2.16329 -1.48736 
1757 2 -5.93331 3.10531 -1.70919 
1003 1 -5.22987 1.76097 -0.686274 
1811 2 -5.49561 2.9767 -1.07308 
446 1 -4.3177 2.61724 -1.95387 
1000 1 -4.32835 2.34159 -0.830415 
966 1 -3.5412 3.10577 -2.15832 
381 1 -2.88549 3.16227 -1.45068 
294 1 -2.14689 3.1297 -1.0609 
739 1 -3.61662 2.66994 -1.36029 
1304 2 -0.810665 2.70828 -1.48131 
1981 2 -1.53649 2.3566 -1.71219 
2023 2 -0.291266 2.55171 -0.948995 
1983 2 -0.368961 3.19649 -2.09692 
1268 2 0.816726 3.49928 -1.83116 
1974 2 1.13964 3.15496 -0.760422 
1616 2 0.20754 3.10253 -1.21138 
660 1 0.498636 2.17854 -1.6828 
747 1 1.28532 2.25583 -1.09591 
582 1 3.54707 3.4451 -1.82007 
945 1 2.27185 2.5554 -1.03189 
1838 2 3.48654 2.17709 -2.10231 
1866 2 3.7723 1.99656 -1.28621 
1333 2 5.51028 2.6561 -1.18036 
1636 2 4.83929 2.0848 -0.578854 
1330 2 4.57219 2.38516 -1.37037 
13 1 -5.53463 4.50749 -1.75205 
132 1 -4.77693 4.67061 -1.46782 
1056 2 -4.17974 3.7369 -1.69413 
1814 2 -3.79059 3.48296 -0.512324 
1287 2 -3.46058 3.94425 -1.12818 
925 1 -1.23769 3.4523 -0.965224 
418 1 -0.773799 4.01355 -1.63866 
1601 2 -1.90673 4.38836 -0.620805 
733 1 -0.165586 4.43877 -2.18475 
224 1 -0.355833 3.80154 -0.771851 
627 1 0.333189 4.37331 -1.38857 
1997 2 1.3321 3.89488 -2.50849 
905 1 1.18954 4.32619 -0.907133 
1913 2 1.69457 3.48346 -1.34095 
564 1 1.03159 4.68642 -1.84363 
1428 2 2.06432 3.9406 -1.89957 
1161 2 2.74154 4.53001 -2.33154 
1610 2 2.15578 3.38719 -0.461502 
1178 2 2.7174 3.9216 -1.1697 
1234 2 3.21013 4.38112 -1.60468 
690 1 4.16214 3.81425 -2.41146 