ITEM: TIMESTEP
31000
ITEM: NUMBER OF ATOMS
2048
ITEM: BOX BOUNDS pp pp pp
-5.9468305252779512e+00 5.9468305252779512e+00
-5.9468305252779512e+00 5.9468305252779512e+00
-5.9468305252779512e+00 5.9468305252779512e+00
ITEM: ATOMS id type x y z 
1714 2 5.63671 -5.43407 -4.56699 
14 1 -4.93474 5.98013 -4.80154 
346 1 -3.96053 -5.5156 -4.84467 
333 1 -4.88494 -5.54942 -5.62745 
508 1 -4.13536 -5.37903 -5.61133 
467 1 -2.61001 -5.12093 -4.59556 
91 1 -2.78219 -4.64142 -5.85861 
1151 2 -2.35267 -5.6486 5.77992 
1551 2 -1.00181 -5.46205 -5.03257 
1029 2 -1.71052 -5.51445 -5.76352 
1199 2 -0.938162 -5.26503 5.86821 
902 1 -2.07581 -4.56331 -5.15533 
1571 2 -0.201788 -4.83401 -5.32698 
350 1 0.169548 5.91232 -5.33188 
1338 2 0.258876 -5.11013 -4.76585 
428 1 1.12004 -5.52176 -5.59007 
1013 1 0.984101 -5.88013 -4.76575 
442 1 1.97274 -5.16475 -5.68775 
496 1 2.77426 -5.13544 -5.2497 
575 1 2.69537 -5.46458 -4.45128 
1704 2 3.24005 5.90494 -5.62121 
1847 2 3.69135 5.72134 -4.71588 
1901 2 4.04293 -5.77441 -5.28235 
707 1 3.57929 -4.72826 -5.20864 
1799 2 4.86098 -5.1617 5.75406 
1239 2 4.82276 -5.40953 -5.34316 
1390 2 -5.34258 -4.60672 -5.57767 
1249 2 -4.68389 -4.55864 -5.24754 
809 1 -5.13348 -3.67652 -4.71116 
684 1 -5.7318 -3.45909 -5.61365 
1472 2 -3.23402 -3.51482 -5.8789 
1630 2 -2.44152 -3.23786 5.54337 
1617 2 -2.80329 -3.74911 -5.30884 
1711 2 -1.54659 -3.4578 -4.9737 
530 1 -1.23511 -4.07108 -5.76099 
1 1 -0.628156 -4.00399 -5.15226 
413 1 -0.295133 -3.57039 -5.79133 
1542 2 0.804491 -4.5537 -5.06868 
782 1 0.478283 -3.50133 -5.43769 
1236 2 1.57158 -4.26317 -5.30602 
1082 2 2.92218 -3.39171 5.43192 
1260 2 2.78971 -3.67158 -5.64018 
2019 2 3.98837 -3.80501 -4.02233 
1528 2 3.54571 -3.49868 -5.45455 
223 1 3.7788 -4.44434 5.85753 
481 1 4.62128 -4.24556 -5.8293 
280 1 5.36462 -3.86458 -5.6165 
1705 2 5.71571 -2.46197 -5.49704 
1745 2 -5.31968 -2.04702 -5.31754 
353 1 -3.96845 -2.77676 -5.4535 
196 1 -3.4731 -2.99039 -4.94262 
402 1 -2.68615 -2.76522 -4.84439 
218 1 -2.83639 -2.43949 -5.609 
664 1 -2.39276 -2.03834 5.66655 
1515 2 -0.677262 -3.00486 -4.90043 
1820 2 -0.296736 -2.54069 -5.62888 
595 1 -1.86831 -2.47339 -4.69845 
1250 2 0.836749 -2.20079 -5.59133 
1555 2 0.173328 -2.65029 -4.96051 
1533 2 1.05198 -2.34173 -4.71511 
122 1 1.61746 -2.95474 -5.78437 
1698 2 1.60486 -2.01448 -5.21972 
547 1 1.36217 -3.27263 -4.94879 
904 1 3.13791 -2.6387 -4.95027 
779 1 2.56485 -2.55713 -5.88053 
308 1 3.0842 -2.13635 5.46745 
706 1 3.41876 -2.29886 -5.63358 
1887 2 4.30156 -3.6535 -4.79024 
1929 2 5.11646 -2.88435 -5.63764 
475 1 4.04787 -2.4729 -4.9118 
609 1 -5.20023 -0.817475 -5.83309 
562 1 -5.70932 -1.24611 -5.1677 
771 1 -5.05182 -1.1737 -4.43722 
1475 2 -4.2719 -1.51545 -5.74752 
2032 2 -3.67685 -2.16197 -4.59528 
117 1 -3.72626 -0.707376 -4.71717 
1588 2 -4.53844 -1.93802 -5.0522 
1975 2 -3.53165 -1.61624 -5.15732 
1243 2 -1.95341 -1.15074 -5.16624 
1414 2 -1.1246 -0.765325 -4.93769 
967 1 -1.67337 -2.16215 -5.36648 
922 1 -1.63484 -1.757 5.64766 
35 1 -0.95673 -1.98496 -4.58623 
367 1 0.0358443 -1.62883 -5.03279 
8 1 -0.853629 -1.70274 -5.57858 
788 1 -0.0444145 -1.35429 -5.79295 
1326 2 1.25998 -1.62854 5.71363 
1401 2 2.72376 -1.54682 -5.29552 
1087 2 3.38477 -0.618673 5.40445 
1202 2 2.57558 -1.05354 5.5737 
1332 2 3.91058 -0.185775 4.65567 
277 1 4.22163 -2.03548 -5.71001 
1982 2 4.1599 -0.724205 5.9156 
1190 2 3.76682 -1.21877 -5.15851 
999 1 5.56456 -1.131 -5.96662 
33 1 4.85755 -1.5808 -5.39562 
1725 2 5.82233 -0.133667 -5.30166 
1110 2 -5.0042 0.244049 -5.03876 
2014 2 5.32971 -0.720438 -4.51326 
701 1 -4.57626 -0.669456 -5.1153 
1111 2 -4.13306 0.461389 -5.0524 
55 1 -4.11398 -0.396976 5.84822 
833 1 -3.55153 -0.311017 -5.45787 
505 1 -2.00961 -0.164291 -4.78689 
1343 2 -3.37101 0.738005 -5.07023 
212 1 -2.7788 -0.228958 -4.97515 
374 1 -1.8391 0.229996 -5.46753 
1355 2 -1.27919 -0.650977 -5.62394 
451 1 -0.412887 0.68157 -4.80316 
244 1 -1.01112 0.40939 -5.40464 
1809 2 -0.163847 -0.296669 -5.34897 
1631 2 0.232864 0.224824 5.91898 
768 1 0.692897 -0.743482 -5.87862 
1785 2 1.18105 0.510255 -5.30615 
916 1 1.50777 -0.539392 -5.6623 
758 1 3.09921 -0.126307 -5.34486 
105 1 3.94566 0.0449282 -5.11281 
334 1 2.43689 -0.532762 -5.07687 
1083 2 4.59744 -1.19821 -4.35226 
872 1 3.29927 -0.490169 -4.51164 
1257 2 4.59878 -0.805632 -5.18859 
715 1 5.31717 0.524484 -4.58243 
469 1 -5.83265 1.26546 -5.89871 
109 1 -4.16353 1.80358 -5.42285 
190 1 -3.4285 2.08808 -5.79782 
1736 2 -3.49368 0.881907 5.97027 
689 1 -4.14434 1.54252 -4.63928 
1256 2 -1.86605 1.21769 -5.02074 
1498 2 -2.64453 1.02312 -5.34269 
2001 2 -1.08644 1.54587 -4.80637 
1298 2 0.497004 2.19383 -4.63513 
827 1 -0.089036 1.12748 -5.41303 
1884 2 0.327471 1.93818 -3.78893 
482 1 -0.543816 1.18178 5.88678 
63 1 0.550431 1.56309 5.72627 
534 1 1.36675 1.87376 5.83686 
1882 2 1.11366 0.654559 5.77943 
380 1 1.68307 1.78282 -5.20003 
1210 2 3.69848 1.27841 -5.44326 
1502 2 2.84435 0.678539 -4.79645 
1314 2 2.75517 1.14528 -5.53031 
1953 2 4.85869 1.91118 -5.79417 
1470 2 4.45333 1.45146 -5.00988 
195 1 4.77956 0.723243 -5.52857 
866 1 5.76697 0.913672 -5.13026 
1204 2 5.26986 1.69725 -4.79656 
1403 2 5.91294 2.17389 -5.25196 
1877 2 -5.35261 2.44638 -5.60535 
676 1 -5.70052 3.14884 -4.54812 
1800 2 -3.37776 3.21855 -5.50574 
1938 2 -3.38967 2.81962 -4.59058 
1412 2 -4.10642 2.83368 -5.38435 
546 1 -1.73953 2.65887 -5.52967 
493 1 -2.53147 2.38068 -5.83542 
990 1 -2.5075 3.02804 5.35166 
815 1 -2.21056 2.2637 -4.95354 
619 1 -1.58348 3.10376 5.57148 
950 1 -0.995832 2.88742 -5.14063 
1364 2 1.10383 2.80198 -5.60478 
885 1 0.186065 3.15964 -4.55868 
1628 2 2.03181 3.15801 -5.32097 
1085 2 2.1797 2.89554 -4.63203 
1967 2 2.04894 2.42225 -3.77769 
1342 2 2.90666 3.38353 -5.32302 
118 1 2.18543 2.20759 5.80143 
570 1 2.55153 2.1751 -5.49598 
574 1 3.85844 1.998 -4.34279 
188 1 4.5623 2.65398 -5.09837 
96 1 3.71955 2.40347 -5.24869 
7 1 5.30154 2.82857 -4.6698 
926 1 -4.99858 3.80791 -5.67204 
1365 2 -5.27755 4.62836 -4.76576 
1482 2 -2.52547 3.42476 -5.23747 
923 1 -3.31851 4.12093 -5.02721 
323 1 -2.91987 4.31158 -4.44138 
69 1 -4.16163 3.92101 -4.99035 
1476 2 -1.82363 3.59282 -4.91038 
1772 2 -2.0778 3.76575 -5.78799 
1378 2 -1.07805 4.02779 -5.02101 
221 1 -2.21274 4.52048 -5.04191 
1934 2 -1.22432 4.29748 -5.89843 
1692 2 -0.264282 4.25085 -4.86017 
1336 2 -0.453981 4.59195 -5.86792 
852 1 -0.205348 3.38216 -5.27013 
1756 2 0.556272 4.63178 -4.9029 
777 1 2.31668 4.63338 -5.91953 
394 1 1.57921 3.76069 -4.56146 
653 1 2.33956 4.18518 -4.99173 
1002 1 3.0465 4.6277 -5.45485 
1214 2 3.71359 3.47282 -5.0739 
1274 2 4.55326 3.8906 -5.60887 
262 1 2.83826 4.13335 -4.39623 
1562 2 4.38233 3.54107 -4.49373 
1640 2 5.22058 4.38996 5.8485 
1088 2 5.81775 4.497 -5.26153 
1073 2 -5.91345 4.84604 5.69715 
342 1 -5.70473 5.84309 -5.26827 
412 1 -5.01369 5.66075 -4.02128 
166 1 -5.77619 5.54004 -4.33527 
1207 2 -5.37932 5.05232 -5.50324 
1527 2 -4.49942 4.90389 -4.59666 
1989 2 -3.68076 5.34345 -5.1849 
1526 2 -3.00787 5.41047 -4.62277 
1329 2 -2.12493 -5.91119 -5.04674 
146 1 -2.47223 4.87649 -5.58583 
1510 2 -2.32132 5.55105 -4.12 
989 1 -3.29274 4.6063 -5.75296 
797 1 -1.51228 5.17226 -5.43679 
836 1 -0.725192 5.29233 -4.68874 
751 1 -2.21612 4.3046 -4.12373 
638 1 0.109314 5.45053 -4.4921 
340 1 -0.638495 5.51252 -5.5597 
1607 2 1.38923 5.03428 -4.98969 
1193 2 1.62161 5.80361 5.24418 
1145 2 2.1789 5.0355 -4.40162 
1033 2 1.49028 5.45925 5.99992 
1955 2 2.13355 5.48969 -5.33016 
1093 2 2.88362 5.47544 -4.92472 
437 1 4.51071 4.97399 -5.25735 
473 1 3.77296 5.04574 -5.85619 
699 1 5.27217 5.14731 -4.61621 
1227 2 -5.44093 -5.0538 -4.95665 
1203 2 -5.58317 -5.20177 -3.87618 
1612 2 -5.03702 -5.27259 -3.24985 
1411 2 -4.10232 -4.58018 -4.50421 
274 1 -3.37679 -5.54378 -4.02477 
5 1 -3.18643 -5.16256 -5.23867 
147 1 -2.23699 -5.27005 -3.6305 
497 1 -1.79298 -4.9176 -4.17419 
107 1 -1.02486 -4.47248 -4.08424 
1353 2 -1.52471 -5.92512 -4.4411 
1503 2 -0.42178 -5.41825 -4.27958 
1747 2 0.062022 -5.63421 -3.63373 
1818 2 -0.951559 -5.89777 -3.69442 
1984 2 1.49231 -4.75764 -4.46099 
1486 2 0.738148 -5.07744 -4.10968 
1563 2 1.37109 -5.28233 -3.55105 
673 1 1.81619 -5.63359 -4.81849 
64 1 3.53583 -5.61566 -3.39813 
931 1 3.60349 -5.19134 -4.43543 
131 1 4.35351 -4.86585 -4.19925 
1090 2 4.73774 -5.81809 -4.63632 
180 1 4.40256 -4.56378 -4.99825 
2034 2 5.39578 -5.77343 -3.69507 
373 1 -5.85199 -4.0051 -4.78597 
339 1 -5.81411 -4.19948 -3.99999 
75 1 -4.97605 -3.85775 -3.86336 
1559 2 -3.55226 -4.19735 -5.06525 
1931 2 -4.89565 -4.81577 -4.31882 
465 1 -4.23823 -3.52611 -4.12568 
622 1 -4.38656 -3.29167 -4.97563 
1425 2 -3.08508 -4.16557 -4.2451 
816 1 -1.84751 -2.95931 -3.00456 
1197 2 -1.18951 -2.88997 -5.82279 
1602 2 -2.25478 -3.75833 -4.59932 
1991 2 -1.98921 -3.91284 -3.75173 
855 1 -1.305 -4.54233 -4.98134 
1848 2 -0.669351 -3.62189 -3.01054 
227 1 -0.138605 -4.04295 -4.44793 
819 1 0.610776 -3.57175 -4.68599 
20 1 1.21121 -3.81578 -4.04188 
136 1 1.97215 -3.37722 -4.31059 
1198 2 3.23738 -3.86981 -4.71085 
2004 2 2.80176 -4.30093 -4.08579 
1019 1 2.48116 -3.48657 -3.55044 
1319 2 4.95957 -3.64435 -3.94517 
1592 2 3.50128 -4.33457 -3.5805 
284 1 5.11211 -4.61704 -4.05913 
1657 2 4.5606 -3.92246 -3.10476 
242 1 5.23969 -4.31581 -4.78304 
1995 2 5.00464 -3.27466 -4.80773 
1483 2 5.87149 -2.89323 -4.65279 
1491 2 -5.34343 -2.53477 -4.66531 
1937 2 -5.04797 -2.84761 -3.67784 
784 1 -5.7446 -2.06009 -3.39537 
965 1 -3.4315 -3.32164 -4.13417 
1296 2 -3.92907 -2.47754 -3.57522 
1465 2 -4.62588 -2.47472 -4.2803 
150 1 -2.43759 -2.95723 -3.89931 
151 1 -1.66734 -2.52939 -3.92775 
236 1 -0.687267 -2.20136 -3.62574 
677 1 -1.0477 -2.71407 -3.01707 
1881 2 -0.95066 -3.32739 -4.05015 
1581 2 -0.119271 -2.97743 -4.18125 
313 1 -0.309702 -2.43718 -2.74574 
1894 2 0.726799 -2.71461 -3.82863 
1263 2 1.46988 -2.89047 -3.11059 
639 1 2.72633 -3.08316 -4.2226 
939 1 2.31401 -3.00464 -5.0852 
1947 2 1.64421 -2.42564 -3.97433 
485 1 3.64069 -2.85675 -4.31564 
928 1 4.39012 -2.67503 -4.08084 
1750 2 -5.8044 -3.10736 -3.83995 
385 1 4.7947 -2.16829 -4.74488 
550 1 5.21939 -2.31953 -3.85827 
179 1 -5.69106 -1.70909 -4.1396 
1030 2 -5.72743 -0.345369 -4.44428 
205 1 -4.79841 -1.63785 -3.66828 
161 1 -4.16694 -1.2217 -4.12894 
1664 2 -3.01885 -1.95134 -3.93734 
948 1 -3.45217 -0.927833 -3.72834 
1271 2 -2.75114 -1.65192 -4.74205 
1867 2 -2.30405 -2.00829 -2.98219 
717 1 -2.55039 -0.72084 -3.70474 
214 1 -2.98829 -0.612144 -4.36919 
1097 2 -2.22687 -1.58599 -4.01583 
1870 2 -1.43528 -1.22155 -4.25119 
599 1 0.272484 -1.90905 -3.33403 
1804 2 0.948334 -0.709674 -2.66051 
657 1 -0.14743 -1.79669 -4.19292 
1223 2 -0.57355 -0.82251 -3.75152 
830 1 0.726505 -1.43921 -4.17188 
674 1 0.9031 -1.12884 -4.96842 
287 1 1.12838 -1.70324 -3.30834 
404 1 1.66059 -1.01951 -4.80175 
1363 2 2.34354 -1.98018 -4.58694 
421 1 1.68205 -1.35675 -3.95854 
691 1 2.42753 -1.24098 -3.47111 
1676 2 3.2606 -1.24022 -5.78891 
1738 2 3.89081 -1.65274 -4.20559 
403 1 5.57881 -1.64533 -4.73227 
1775 2 4.64803 -1.41838 -3.5387 
1634 2 5.54025 -1.03246 -3.69985 
1128 2 3.96689 -1.8461 -3.31424 
2048 2 -4.18364 0.134089 -4.21264 
900 1 4.61209 0.142571 -4.63102 
1792 2 -4.99135 -0.189916 -3.89258 
1754 2 -3.25341 0.498168 -4.22948 
848 1 -1.63309 -0.210323 -3.98124 
1876 2 -2.4313 0.744163 -4.39005 
1104 2 -2.29727 0.583287 -3.58173 
254 1 -1.19797 0.230099 -4.57781 
704 1 -0.495727 0.432176 -3.96821 
1500 2 -0.317746 -0.628942 -4.65147 
1673 2 0.404689 -0.497375 -4.04048 
594 1 0.124219 0.377923 -3.41955 
517 1 0.864696 0.461586 -2.94238 
1570 2 0.62273 -0.0204457 -4.86236 
1644 2 1.42789 -0.0919223 -4.47384 
2041 2 2.03872 0.506944 -4.90195 
1963 2 2.44913 0.144687 -3.98826 
427 1 2.47851 -0.827835 -4.31106 
1572 2 3.69345 0.966268 -4.6405 
42 1 3.36977 -0.71287 -3.65013 
2008 2 3.18631 0.443982 -4.09698 
125 1 4.11065 -0.316045 -3.95455 
32 1 5.25722 -0.0106265 -3.64176 
278 1 -5.88933 0.529868 -3.75116 
1361 2 -5.42309 1.7334 -3.26847 
1728 2 -4.93795 2.02035 -3.84303 
697 1 -4.85791 1.02263 -4.3887 
230 1 -5.06719 1.3795 -5.20168 
824 1 -4.17557 1.08326 -3.87627 
752 1 -3.16359 1.84296 -4.95519 
903 1 -3.35372 1.4779 -3.94027 
1830 2 -1.58797 1.20343 -4.18226 
1999 2 -0.336257 2.08293 -5.14089 
1550 2 -0.895923 1.34342 -3.62149 
1962 2 -0.364236 1.6689 -4.39447 
1054 2 1.18209 2.19041 -3.8483 
80 1 0.366653 0.929378 -4.38621 
401 1 0.774257 1.43735 -5.21383 
1021 1 1.02507 0.905748 -3.7665 
551 1 1.40488 1.27158 -4.3899 
382 1 2.21772 1.68315 -4.56556 
760 1 3.60063 1.64141 -3.42123 
1172 2 3.88547 0.662554 -3.76325 
232 1 4.20702 1.63878 -2.73462 
1068 2 -5.61995 2.03442 -4.42934 
1696 2 4.47121 1.21146 -4.18662 
1777 2 5.6098 1.76592 -3.99694 
1861 2 -5.06934 2.45365 -4.87 
298 1 -4.70554 3.37769 -4.00817 
882 1 -5.53651 2.96829 -3.74791 
631 1 5.51078 2.67767 -3.77166 
1959 2 -2.55519 3.17396 -4.38047 
1512 2 -4.32254 2.50551 -4.25335 
1092 2 -3.38883 2.45479 -3.77794 
1794 2 -2.72602 2.7799 -3.57595 
1175 2 -1.79911 3.16004 -3.86858 
1015 1 -2.54765 1.88984 -4.13066 
491 1 -0.546511 2.81594 -4.36463 
982 1 -1.69533 2.11333 -3.71384 
709 1 -1.33474 2.47088 -4.52554 
478 1 -0.110571 2.49574 -2.93975 
1979 2 1.26231 2.57215 -4.61946 
1769 2 2.66177 2.13503 -2.76475 
561 1 0.824483 2.86486 -3.03138 
1653 2 3.16314 2.99277 -4.4273 
1461 2 2.83891 2.48551 -3.63086 
869 1 3.05179 1.96931 -4.67004 
1105 2 3.47433 2.78468 -2.99185 
1011 1 4.27213 2.17643 -3.61353 
2020 2 3.74065 2.94553 -3.81063 
2039 2 4.47005 3.36495 -3.72467 
726 1 4.70897 2.48362 -4.24742 
731 1 -5.85879 2.59864 -3.03269 
369 1 -4.98847 3.49646 -4.83932 
1278 2 -5.21832 4.3634 -3.95222 
45 1 -3.76531 3.86641 -4.23951 
322 1 -3.89822 3.21288 -3.36912 
460 1 -2.97343 3.81269 -3.80072 
772 1 -2.21774 4.11231 -3.25589 
276 1 -1.40078 4.63764 -3.63888 
1142 2 -1.36286 3.71694 -4.10646 
1625 2 -0.525166 4.07647 -4.11782 
1247 2 -1.1295 3.26479 -3.30455 
552 1 0.0308336 2.99033 -3.69831 
1593 2 0.475786 4.39725 -4.14071 
2040 2 1.35812 4.63851 -4.13366 
448 1 0.836737 3.38539 -4.14867 
1267 2 1.19861 4.18665 -3.27439 
775 1 2.24103 3.74314 -3.92034 
896 1 1.5052 3.33201 -3.59807 
256 1 2.51541 3.58534 -3.01791 
143 1 3.13375 3.77927 -3.75019 
432 1 3.73868 4.64255 -4.88546 
34 1 4.05849 4.26938 -3.24613 
1779 2 5.14517 4.00494 -5.13818 
1977 2 5.85166 4.17108 -4.42309 
825 1 -5.59707 5.18154 -3.48269 
662 1 5.6197 5.03339 -3.8051 
805 1 -4.29198 -5.85714 -4.14946 
1417 2 -4.12616 4.60191 -3.6054 
453 1 -4.54227 5.56998 -3.189 
1138 2 -3.70417 5.06602 -4.16708 
1048 2 -4.37885 4.05142 -2.99094 
1413 2 -3.33687 4.65826 -3.08259 
1038 2 -1.70021 5.52608 -3.33589 
871 1 -0.599197 4.67366 -2.92773 
1191 2 -0.982603 5.55804 -2.65799 
123 1 -1.53532 4.93854 -4.60931 
41 1 -0.683095 5.0025 -3.96439 
959 1 1.72493 5.85085 -4.10367 
1042 2 2.04366 4.73532 -3.67514 
165 1 0.800529 5.57792 -3.94198 
1764 2 2.92668 5.20802 -4.06473 
1926 2 2.88225 4.88961 -3.29962 
43 1 2.63523 -5.65864 -3.66254 
1318 2 3.74745 5.29428 -3.03303 
1875 2 3.73991 5.36004 -3.90618 
1100 2 4.60965 5.45933 -2.91396 
1846 2 4.58646 5.71336 -3.77217 
370 1 3.74394 4.35134 -4.08209 
835 1 4.48579 4.63464 -4.24448 
181 1 4.99846 4.75784 -3.59335 
1192 2 -5.80434 -5.61231 -3.15013 
1126 2 -4.92872 -5.5978 -2.51322 
1604 2 -4.94995 5.86172 -1.75362 
273 1 -5.33058 -4.72189 -2.27411 
1272 2 -4.17395 -5.73182 -1.80164 
1534 2 -4.41059 -4.85667 -3.60181 
1548 2 -4.09736 -5.17603 -2.76066 
119 1 -2.80852 -5.76306 -2.80426 
260 1 -1.29667 -4.89283 -3.26085 
229 1 -1.22026 -5.37175 -2.22554 
1014 1 -1.80803 -5.44538 -2.76735 
1928 2 -0.299892 -5.90836 -2.8677 
1543 2 0.635486 -5.8353 -2.3749 
295 1 -0.215386 -5.06988 -2.05308 
1344 2 0.68798 -5.49309 -3.11806 
1957 2 1.58355 -5.46729 -2.43624 
1828 2 2.07483 -4.84005 -3.77231 
1081 2 2.39174 -4.24126 -4.90109 
2017 2 3.04712 -4.69531 -3.07737 
1749 2 2.87068 -5.09804 -2.15163 
1530 2 3.17436 -5.21836 -1.28259 
1765 2 3.70814 -4.97484 -1.9361 
667 1 4.35659 -5.17118 -3.25196 
847 1 3.91867 -5.63686 -2.54361 
141 1 3.24153 5.67645 -1.82667 
955 1 4.71816 -5.33496 -2.4006 
19 1 5.10146 -4.89572 -3.1633 
2010 2 -5.40584 -3.76555 -1.89512 
251 1 -4.81963 -4.09439 -2.92165 
1851 2 -4.71164 -3.30039 -2.22347 
1871 2 5.45091 -3.53626 -3.22692 
269 1 -4.47062 -4.47184 -2.15917 
441 1 -3.939 -3.7298 -3.32303 
2000 2 -3.54382 -4.63588 -3.52765 
1046 2 -2.69192 -4.36816 -3.35876 
634 1 -2.93941 -3.40148 -3.25309 
1079 2 -1.62623 -3.99413 -2.9874 
1896 2 -1.0187 -4.08174 -2.40655 
416 1 -0.418841 -4.50821 -3.50227 
1231 2 -0.0704809 -3.32228 -3.34595 
249 1 0.426897 -4.17479 -3.73351 
938 1 1.75464 -3.94824 -3.44522 
954 1 0.260808 -4.57096 -2.84715 
1878 2 1.74356 -3.24392 -2.25438 
981 1 3.06556 -3.52849 -2.86302 
934 1 2.24784 -3.95863 -2.73794 
1232 2 3.7221 -4.36852 -2.64344 
100 1 3.34432 -3.83345 -1.92047 
1836 2 5.05108 -3.94104 -2.42522 
878 1 -5.74084 -4.50534 -3.19413 
1655 2 5.93991 -3.70361 -2.47267 
1817 2 -5.41303 -3.26865 -2.96645 
471 1 5.93458 -2.48902 -2.56446 
754 1 5.30652 -2.47358 -3.08116 
1545 2 -4.55696 -3.03002 -2.92083 
1902 2 -3.06021 -2.36384 -3.00906 
1442 2 -3.71631 -2.79112 -2.48171 
753 1 -2.49233 -3.58837 -2.49394 
1908 2 -1.51863 -1.742 -2.7459 
1537 2 -1.04765 -1.80709 -2.05578 
411 1 -0.737272 -2.99884 -2.23798 
398 1 -1.74549 -3.14129 -2.20441 
1457 2 0.66115 -3.19016 -2.87131 
1942 2 0.0308331 -3.76687 -2.48659 
844 1 0.570887 -2.10553 -2.60545 
597 1 1.44849 -1.96296 -2.26605 
1580 2 2.34742 -2.59279 -2.92251 
377 1 2.30355 -1.69201 -2.19797 
1645 2 3.21336 -2.26657 -2.87443 
1923 2 2.35168 -2.28662 -3.69602 
1787 2 2.80584 -2.76528 -2.20317 
1946 2 3.10437 -1.67279 -4.48325 
1001 1 3.42986 -3.05257 -3.50485 
352 1 4.00682 -3.32496 -2.35163 
1641 2 4.00209 -2.25251 -2.48636 
914 1 4.32982 -2.87553 -3.2455 
311 1 4.90467 -2.94984 -2.31547 
140 1 -5.01293 -2.06204 -2.90145 
2035 2 -5.62517 -0.770488 -3.50597 
636 1 -4.34083 -2.02837 -2.08578 
344 1 -3.37012 -1.68687 -1.98241 
592 1 -4.17246 -1.64961 -2.96132 
917 1 -3.37723 -1.25859 -2.8423 
499 1 -1.7533 -0.61262 -2.99887 
37 1 -2.54605 -0.971738 -2.64999 
1573 2 -1.26976 -1.3607 -3.43427 
1345 2 0.129814 -0.898475 -3.14416 
1456 2 -0.572493 -1.43756 -2.73892 
234 1 -1.79278 -0.88265 -2.09279 
1517 2 0.271237 -1.1969 -2.2235 
1568 2 1.07273 -1.23191 -1.81593 
1057 2 1.30361 -0.513525 -3.41988 
1832 2 2.67316 -0.291209 -2.37385 
705 1 1.8674 -1.71084 -2.9615 
640 1 2.98643 -1.29657 -2.57072 
867 1 3.00845 -1.62473 -1.50894 
1259 2 3.0716 -2.02069 -3.77245 
700 1 3.53108 -0.862668 -2.86886 
116 1 3.74139 -1.28155 -2.00741 
1299 2 4.76941 -1.51986 -2.73291 
1237 2 5.74929 -1.28376 -2.8307 
1279 2 -5.38946 -1.20918 -2.44024 
1163 2 -4.85532 -0.672406 -2.9966 
299 1 -5.06944 0.377137 -2.87207 
708 1 5.86709 0.0337248 -2.88958 
397 1 -5.05918 0.66126 -3.63127 
1184 2 -4.10506 -0.248821 -3.54061 
1350 2 -4.07294 -0.60869 -2.80614 
94 1 -4.22839 0.81518 -3.09459 
1206 2 -3.06916 -0.110842 -2.5727 
1310 2 -3.16378 0.103369 -3.45115 
1025 2 -2.19383 0.167933 -2.59343 
1834 2 -1.28843 0.55083 -2.07198 
789 1 -0.994201 -0.0828949 -3.39781 
615 1 -0.959283 -0.362056 -2.44173 
886 1 -0.363767 -0.0166943 -2.77573 
121 1 0.385559 0.0859785 -2.09656 
90 1 1.78234 0.68037 -3.08576 
842 1 2.48981 0.730518 -2.16277 
749 1 1.51046 0.213809 -2.17903 
1952 2 2.28208 -0.277134 -3.22035 
1529 2 3.05552 0.0897978 -3.16117 
198 1 4.33795 -0.717285 -2.36843 
1220 2 4.4862 0.637604 -3.10454 
2027 2 3.74297 0.218456 -2.62776 
241 1 4.46689 -0.475503 -3.21801 
297 1 5.23185 -0.350124 -2.66897 
1468 2 5.3304 0.908957 -2.70945 
1654 2 -3.71675 1.96439 -2.72888 
1282 2 -4.73121 1.68649 -2.77679 
1320 2 5.76131 1.43709 -3.28275 
912 1 -5.68504 0.903541 -4.45464 
1839 2 -4.17916 2.13288 -3.48599 
1803 2 -3.91156 1.6572 -2.02615 
164 1 -3.37832 1.06154 -3.10156 
613 1 -2.55353 1.06074 -2.17203 
686 1 -3.50058 0.79302 -2.19371 
310 1 -2.52041 1.48348 -3.29313 
719 1 -1.7954 1.7947 -2.87084 
1643 2 -1.52105 0.714727 -3.02609 
494 1 -1.72201 1.50624 -2.01572 
2043 2 -0.302217 0.75337 -1.90195 
1436 2 -0.715003 1.1204 -2.74522 
1642 2 0.988247 1.78325 -3.01453 
1158 2 1.89094 1.95561 -3.08369 
1683 2 0.00179616 1.44457 -3.0963 
895 1 1.9621 1.04252 -3.8588 
1050 2 1.21974 1.23574 -2.22283 
447 1 2.91358 1.51102 -3.98562 
894 1 2.52841 1.02222 -3.10948 
1825 2 2.64436 1.88003 -1.93896 
621 1 3.36133 1.17182 -2.72368 
944 1 4.94541 1.63469 -2.20544 
243 1 3.31199 1.0586 -1.89693 
1986 2 5.01213 1.08677 -3.61865 
811 1 -5.63315 2.18305 -1.95641 
171 1 4.95696 2.10065 -3.12572 
2030 2 -5.50957 1.26155 -2.45163 
204 1 -4.90179 2.9586 -3.05394 
351 1 -4.96817 2.52053 -2.29687 
2021 2 -2.7514 2.40957 -2.77995 
568 1 -3.35474 3.20678 -2.37911 
879 1 -4.12763 2.95792 -2.66651 
1689 2 -2.08451 2.70668 -2.26987 
1415 2 -1.95548 2.93289 -3.02652 
1485 2 -1.26321 2.96548 -2.17943 
1268 2 -0.369382 2.84231 -1.53017 
301 1 -1.0474 2.24694 -2.80459 
593 1 -0.846503 2.39833 -3.6036 
208 1 0.209029 2.07912 -1.98923 
1183 2 -0.538811 3.28323 -2.56518 
660 1 1.02005 2.44541 -2.30554 
1994 2 1.99633 1.67624 -2.27204 
747 1 1.56197 2.57305 -1.8492 
1065 2 3.42213 2.27049 -2.28639 
828 1 2.53556 3.11433 -2.16446 
1686 2 4.2955 2.82376 -2.69632 
1786 2 4.88493 3.4368 -3.08745 
1026 2 5.15766 2.52468 -0.617238 
702 1 5.62948 1.98154 -2.47691 
1522 2 4.35628 2.60783 -1.89977 
1636 2 5.15406 2.74887 -1.53016 
1670 2 -5.25482 3.99791 -3.18548 
1072 2 5.83093 3.92941 -3.55956 
1333 2 -5.12498 3.74397 -2.36807 
1971 2 -3.70588 4.17595 -2.36032 
381 1 -2.97876 3.6924 -2.951 
111 1 -2.25476 3.74499 -2.49189 
26 1 -1.69076 3.88175 -1.92303 
520 1 -2.65118 3.29406 -1.74608 
17 1 -1.39468 4.19103 -2.7565 
1668 2 -0.325985 3.74859 -3.42579 
516 1 0.024486 4.63298 -2.44521 
1499 2 2.01664 4.32558 -2.7643 
1071 2 0.43355 4.07229 -3.40508 
1869 2 1.24162 3.7859 -2.48049 
937 1 1.86269 2.99794 -2.71808 
1428 2 2.16588 4.02533 -1.8091 
1854 2 2.8537 4.47183 -2.47377 
906 1 3.4835 3.8318 -3.03102 
641 1 4.25591 3.91663 -2.35704 
1662 2 5.1498 3.003 -2.47068 
1349 2 5.16132 3.81841 -4.07513 
918 1 5.47951 4.27648 -2.07045 
650 1 4.78685 3.87915 -1.77583 
742 1 4.97573 4.37221 -2.77977 
946 1 5.73004 4.80319 -2.93434 
355 1 -5.22357 4.49826 -1.6054 
443 1 -5.73721 4.56255 -2.31729 
579 1 -3.78018 5.45385 -2.53693 
961 1 -5.1579 5.03246 -2.73761 
1008 1 -3.63688 5.73256 -3.29774 
1127 2 -2.90926 5.12249 -3.59802 
1419 2 -2.79906 4.58321 -2.18984 
589 1 -3.07608 5.62291 -2.15728 
1339 2 -1.64551 5.13453 -2.35065 
1575 2 -2.24562 5.03289 -2.80891 
612 1 0.0662307 5.16174 -3.46782 
361 1 0.702479 4.95815 -2.69086 
1265 2 -1.02418 5.26454 -1.63267 
1136 2 -0.113099 5.45397 -2.04926 
736 1 1.27486 5.44313 -3.30437 
564 1 0.981513 4.62186 -1.73198 
343 1 1.58891 5.2605 -2.4906 
182 1 2.9878 5.93393 -2.74738 
487 1 2.21673 5.72479 -3.11264 
422 1 2.40863 5.31142 -2.05642 
1405 2 3.58956 4.75895 -2.39516 
1489 2 4.55141 5.08171 -2.06111 
2016 2 -5.6492 5.96541 -2.26266 
1699 2 5.42846 5.74618 -2.87056 
798 1 5.72314 -4.91725 -2.49061 
504 1 -5.43143 -5.1599 -1.52098 
1261 2 -3.84595 -5.9323 -0.819053 
1285 2 -3.4235 -5.27548 -1.55067 
1312 2 -2.90347 -5.65355 -0.821525 
991 1 -4.39374 -5.09388 -0.616624 
1454 2 -2.56909 -5.14956 -1.6642 
1047 2 -3.29371 -4.82557 -2.5785 
326 1 -1.4279 -5.76873 -1.42535 
1477 2 -1.63949 -4.72158 -1.28664 
305 1 -0.587533 -4.96624 -2.78249 
672 1 -0.573786 -5.54437 -1.4515 
317 1 0.26369 -5.17249 -1.33763 
459 1 0.735735 -4.75384 -2.12319 
257 1 1.47112 -4.41157 -2.15367 
1915 2 2.15158 -5.05904 -2.86408 
1859 2 2.17756 -5.54716 -1.62261 
1129 2 4.98712 -4.68757 -1.23737 
1487 2 4.21206 -5.07005 -1.03913 
802 1 5.71916 -5.29555 -1.63556 
153 1 4.91767 -5.68749 -1.63551 
1521 2 5.62137 -4.75716 -0.551841 
542 1 5.25843 5.8305 -0.752493 
1948 2 -5.60974 -4.23437 -1.04485 
1449 2 -4.80181 -3.78175 -1.28839 
524 1 -4.69378 -4.86029 -1.44273 
2007 2 -3.9859 -3.2632 -1.64857 
71 1 -3.5349 -3.85266 -2.53874 
21 1 -3.79136 -4.34463 -1.56898 
890 1 -2.8836 -4.01615 -1.69699 
907 1 -1.75931 -4.38859 0.247568 
1394 2 -2.28564 -4.66687 -2.37803 
1783 2 -1.6313 -4.36275 -1.96318 
875 1 -2.06407 -3.62877 -1.42551 
324 1 -1.92369 -4.07077 -0.562177 
526 1 -1.31951 -3.54941 -0.840125 
1613 2 -0.703833 -4.2292 -1.65193 
1985 2 0.102271 -4.44149 -0.642006 
1748 2 0.275689 -3.8937 -1.62469 
569 1 1.08778 -4.27447 -3.05419 
1973 2 2.28427 -3.04666 -1.60998 
1658 2 0.92777 -3.49887 -2.11866 
661 1 2.46469 -4.10745 -1.79959 
328 1 3.58538 -4.03535 -1.16522 
1066 2 3.11641 -3.07217 -1.18811 
321 1 4.17648 -3.58295 -1.56002 
522 1 4.60525 -3.80194 -0.863955 
1737 2 4.43354 -4.52644 -2.0143 
1844 2 5.53914 -4.2065 -1.80632 
602 1 5.05541 -3.33933 -1.47132 
968 1 5.83705 -2.91424 -1.75907 
532 1 -5.2119 -2.38403 -1.97139 
58 1 -5.24006 -2.77821 -1.01735 
734 1 -4.55439 -2.52777 -1.17408 
291 1 -3.73597 -2.57202 -0.212963 
1478 2 -2.83205 -2.47772 -2.18255 
1911 2 -1.95495 -2.20118 -2.1149 
1993 2 -3.18206 -3.01703 -1.51888 
1077 2 -2.31658 -2.64872 -1.30675 
986 1 -1.09788 -3.2924 -1.44805 
1781 2 -0.32258 -1.56715 -1.67469 
1574 2 -1.55216 -2.34012 -1.38749 
388 1 0.10223 -2.71172 -2.06179 
998 1 0.968131 -2.51626 -1.71531 
11 1 -0.195901 -3.13842 -1.42382 
1289 2 -0.755808 -2.21569 -1.13106 
566 1 1.30868 -2.54531 -0.917433 
106 1 1.86622 -2.18066 -1.53326 
347 1 0.612488 -2.88924 -0.872559 
626 1 2.59756 -2.19233 -0.90451 
1708 2 3.5083 -2.59961 -1.72648 
629 1 2.95102 -2.41202 -0.109575 
1167 2 4.07788 -2.71555 -1.18771 
1996 2 4.76614 -2.63753 -0.645753 
213 1 5.84617 -3.36453 -0.893915 
1492 2 5.46515 -2.04231 -1.17812 
1978 2 -4.59805 -0.851139 -2.01351 
1940 2 -5.69216 -1.50368 -1.63791 
1352 2 -3.98925 -1.14733 -1.05413 
1393 2 -4.91227 -1.23285 -1.41245 
1826 2 -3.78718 -0.531418 -2.06329 
1028 2 -3.35672 -1.05928 -0.28136 
1972 2 -2.75304 -0.284975 -1.73671 
767 1 -3.79093 -2.03933 -1.33965 
548 1 -2.54049 -1.31652 -1.87818 
419 1 -0.671608 -1.05915 -0.863985 
963 1 -1.96155 -1.47295 -1.1882 
252 1 -1.40346 -1.46241 -0.553575 
1635 2 0.468527 -1.64066 -1.3479 
1086 2 0.069063 -2.14088 -0.653956 
1682 2 1.11375 -1.58573 -0.83716 
630 1 -1.06173 -0.873782 -1.57649 
2046 2 1.85393 -0.68711 -2.37027 
1659 2 1.73447 -1.12457 -1.42904 
1819 2 2.52131 -0.708427 -1.60881 
1505 2 3.50265 -0.203783 -1.96541 
846 1 3.55756 -1.79821 -0.651859 
1916 2 2.76033 -0.969084 -0.643471 
518 1 4.13223 -1.42904 -1.29195 
279 1 4.91144 -1.03564 -1.61817 
1286 2 5.39557 -1.71534 -2.20355 
1148 2 4.59305 -2.10671 -1.83316 
958 1 5.70262 -0.387552 -1.91926 
654 1 -5.42661 -0.0666582 -2.19905 
737 1 5.90017 -0.683517 -1.10571 
489 1 -4.75818 0.13123 -1.82618 
818 1 -4.22245 0.482048 -2.36812 
472 1 -3.91765 0.310608 -1.40251 
259 1 -3.35772 0.240151 -0.77072 
921 1 -2.96792 0.654183 -1.41545 
1432 2 -1.84281 0.03467 -1.70038 
1893 2 -2.23842 -0.451808 -0.924888 
189 1 -2.52744 0.5324 -0.588251 
1589 2 -0.777649 0.346843 -1.20438 
776 1 -0.331674 -0.52222 -1.69177 
1067 2 -0.0316035 0.460048 -0.696545 
1386 2 0.496873 0.789847 -1.3109 
502 1 0.219124 -0.471361 -1.08234 
625 1 0.983413 -0.23202 -1.53155 
874 1 2.49496 -0.0589642 -0.548114 
1373 2 1.63169 0.929007 -0.750224 
408 1 2.12686 0.331956 -1.53442 
870 1 3.24758 0.227539 -0.575922 
1858 2 3.49207 -0.658503 -1.14815 
1059 2 4.46895 0.28464 -2.0659 
1897 2 4.28099 -0.508108 -0.763568 
692 1 -5.18949 -0.1967 -1.20405 
1564 2 5.63504 0.678649 -1.875 
1508 2 4.16845 -0.0439487 -1.42715 
446 1 -4.99021 2.20868 -1.38798 
2038 2 -5.5092 1.00957 -1.71159 
1229 2 -4.62574 1.24757 -1.76278 
1003 1 -5.62241 1.80157 -0.981752 
1720 2 -4.46035 1.11317 -0.93114 
2047 2 -3.57349 1.50221 -1.16228 
1981 2 -1.81844 2.05754 -0.649666 
115 1 -2.13663 0.911001 -1.36124 
1727 2 -2.58694 1.85199 -1.14579 
585 1 -1.21246 1.31474 -1.34828 
134 1 -0.497164 1.62674 -0.979841 
240 1 -0.684101 1.87585 -2.06754 
1187 2 0.392954 1.17963 -2.38911 
823 1 0.33043 1.74185 -1.21069 
614 1 -0.137248 1.38923 -0.288162 
1681 2 1.25492 0.976038 -1.42252 
1297 2 1.97329 1.47672 -1.21994 
50 1 2.98212 0.422153 -1.35371 
1134 2 3.04916 1.66578 -1.27729 
1340 2 4.16328 1.60261 0.0715517 
194 1 4.13144 1.16154 -1.90857 
783 1 3.85139 0.971193 -1.24526 
95 1 5.71301 1.33735 -0.485322 
761 1 5.48641 1.80384 -1.49627 
1000 1 -4.6605 2.07494 -0.734903 
966 1 -4.1936 2.55643 -1.80561 
1330 2 5.87556 3.15859 -1.91558 
294 1 -3.39324 2.82113 -1.56583 
739 1 -3.70445 2.34627 -0.743387 
1679 2 -2.99492 1.97512 -1.95045 
16 1 -3.01003 2.89857 -0.872517 
567 1 -2.86546 2.39423 0.00707306 
1304 2 -2.01259 2.30729 -1.54576 
1983 2 -1.2308 2.60626 -1.29044 
2023 2 -0.983594 2.24607 -0.397643 
1616 2 -0.0657919 2.67694 -0.684393 
1974 2 0.829869 3.07382 -1.14006 
608 1 0.964182 1.69266 -0.280691 
44 1 1.13007 2.13617 -1.20459 
114 1 1.6483 1.80975 0.168859 
843 1 1.88678 2.16899 -0.664379 
1099 2 1.8179 3.39096 -0.778844 
1838 2 3.69776 2.19268 -1.43203 
183 1 2.85833 2.59625 -0.589729 
945 1 2.36407 2.73864 -1.40305 
510 1 3.22195 3.27938 -1.38131 
1368 2 3.50214 1.69948 -0.490997 
379 1 4.4779 3.27505 -0.429024 
582 1 3.30203 3.41825 -2.2332 
1866 2 4.35759 2.16689 -0.935454 
1811 2 -5.84482 2.88758 -1.06828 
1554 2 5.86783 3.53679 -2.84421 
993 1 5.75606 4.10424 -1.27609 
506 1 -4.44332 4.90376 -2.22829 
13 1 -5.13782 4.18662 -0.911852 
1757 2 -4.25771 3.70557 -2.06064 
1056 2 -5.21716 3.29588 -1.5588 
1335 2 -4.21313 3.54678 -1.24517 
1814 2 -3.516 3.76442 -0.785756 
1287 2 -3.25662 4.20985 -1.54247 
925 1 -2.16135 3.29128 -1.20155 
1992 2 -2.06676 4.79115 -1.76462 
2033 2 -2.52266 4.34742 -1.07133 
733 1 -0.743366 4.31233 -2.0425 
418 1 -0.966973 3.7652 -1.29245 
1406 2 0.199702 3.60901 -2.64502 
224 1 -0.361872 3.73368 -0.655286 
627 1 0.153614 4.17045 -1.49593 
905 1 1.08486 4.34257 -0.838851 
985 1 0.387163 3.86246 -0.400805 
1997 2 0.447101 3.30817 -1.94168 
652 1 1.58346 4.28056 -0.219444 
1913 2 1.47908 3.57079 -1.54883 
1161 2 2.90112 4.32757 -1.51506 
1610 2 2.60238 3.85681 -0.854254 
1234 2 3.64468 4.58085 -1.64089 
1178 2 3.5597 4.16008 -0.908167 
1842 2 3.66086 3.86236 -0.0744908 
690 1 4.01852 3.46615 -1.42432 
258 1 4.9602 3.67235 -1.00412 