ITEM: TIMESTEP
31900
ITEM: NUMBER OF ATOMS
2048
ITEM: BOX BOUNDS pp pp pp
-5.9339485909837064e+00 5.9339485909837064e+00
-5.9339485909837064e+00 5.9339485909837064e+00
-5.9339485909837064e+00 5.9339485909837064e+00
ITEM: ATOMS id type x y z 
14 1 -4.70463 -5.81353 -4.51282 
333 1 -5.09988 -5.63788 -5.3428 
1390 2 -5.02326 -4.65872 -4.9257 
1227 2 -5.88793 -5.19634 -4.25949 
346 1 -3.31478 -5.52904 -3.9763 
508 1 -3.80182 -5.32116 -4.94708 
902 1 -2.29273 -4.60224 -5.24066 
1329 2 -1.60178 -5.64391 -4.78713 
5 1 -2.76171 -5.04982 -4.78966 
1551 2 -0.88275 -5.30137 -5.25535 
1029 2 -1.13149 -5.10126 5.96557 
1571 2 -0.0957711 -4.83007 -5.51442 
1338 2 -0.303592 -5.3561 -4.70499 
428 1 0.978937 -5.74867 -5.65483 
1013 1 0.740726 5.91737 -4.90391 
442 1 2.30414 -4.6531 5.65924 
1542 2 1.35367 -4.631 -5.00807 
673 1 2.01822 -5.36189 -5.72195 
496 1 2.77995 -5.0305 -5.38339 
1901 2 3.72348 -5.83435 -5.32276 
707 1 3.49128 -4.92245 -5.05066 
1239 2 4.55156 -5.55231 -4.94788 
1090 2 4.20918 5.86889 -4.23193 
2003 2 5.2587 -5.31304 -5.48297 
1249 2 -4.49491 -4.25356 -5.49758 
809 1 -5.14014 -3.54477 -4.76817 
684 1 5.57541 -3.74177 -5.55373 
373 1 5.8402 -3.97648 -4.56222 
1559 2 -3.03507 -4.05772 -4.59203 
1467 2 -3.68584 -3.96207 -5.30589 
91 1 -3.42706 -4.90916 -5.71338 
1472 2 -3.3253 -3.49213 5.76133 
1617 2 -2.75255 -3.57048 -5.32988 
1711 2 -1.34947 -3.5371 -4.181 
530 1 -1.67866 -4.10105 5.85535 
855 1 -1.45622 -4.22346 -5.24513 
1 1 -0.598767 -3.98267 -5.25128 
413 1 0.0569919 -3.30976 5.87366 
782 1 0.894402 -3.09997 -5.9016 
819 1 0.262289 -3.70891 -5.34673 
1035 2 0.754708 -4.61357 -5.74745 
1236 2 1.87748 -4.21808 -5.44967 
1260 2 3.63625 -3.7487 -4.99017 
1198 2 3.96712 -3.86322 -4.03584 
1081 2 2.73048 -4.11594 -5.08232 
1528 2 3.99389 -3.14785 -5.78303 
1887 2 4.73536 -3.52384 -4.29951 
180 1 4.00496 -4.91168 -4.24667 
481 1 4.42694 -4.49262 -4.98766 
280 1 5.21767 -4.3035 -4.92072 
242 1 5.02415 -4.49411 -4.03531 
1745 2 -5.15142 -2.18644 -5.65423 
1491 2 -4.95154 -2.2866 -4.75322 
283 1 -5.62761 -3.42262 5.52088 
353 1 -4.75362 -3.08094 5.83316 
196 1 -4.43534 -3.10877 -5.28477 
622 1 -5.43358 -3.5139 -5.47764 
402 1 -3.08936 -2.66063 -4.64916 
218 1 -3.49161 -2.71355 -5.38572 
2009 2 -1.7767 -3.3468 -4.86884 
1515 2 -0.758607 -2.94167 -4.9491 
595 1 -2.22953 -2.59181 -4.83254 
967 1 -2.77485 -2.35481 -5.77472 
35 1 -1.47541 -2.14391 -4.76589 
1197 2 -1.43001 -2.91687 5.97342 
1820 2 -0.507369 -2.56284 -5.83427 
1555 2 0.157412 -2.60882 -5.07286 
1250 2 0.611977 -2.14868 -5.70516 
1533 2 0.957568 -2.5262 -4.76881 
122 1 1.95117 -3.07908 -5.36847 
1698 2 1.63063 -2.14978 -5.09315 
547 1 1.27103 -3.52175 -5.06829 
904 1 3.75824 -2.30419 -5.46306 
779 1 3.2584 -2.05258 5.5142 
939 1 2.72407 -2.53288 -5.78878 
706 1 4.09297 -1.96645 5.68118 
475 1 4.11189 -2.63336 -4.53323 
277 1 4.64433 -2.10303 -5.27286 
1341 2 4.49863 -3.44316 -5.0992 
1705 2 -5.68588 -2.46541 -5.16198 
1929 2 5.83749 -2.41531 5.79287 
1995 2 5.34342 -2.91594 -4.84293 
385 1 5.16653 -1.99654 -4.53289 
609 1 -4.60847 -0.737622 -5.71942 
562 1 -5.29112 -1.21472 -5.31615 
1475 2 -4.80695 -1.63596 5.47682 
1588 2 -4.27894 -1.82448 -5.56931 
1975 2 -3.36383 -1.48943 -5.23874 
701 1 -4.43752 -0.807144 -4.87225 
1271 2 -2.1913 -1.26468 -4.82902 
1713 2 -2.63323 -1.18841 -5.46068 
1243 2 -1.6464 -0.662023 -5.44924 
1414 2 -1.17785 -0.99501 -4.72358 
8 1 -2.00845 -2.08174 -5.52976 
1355 2 -1.22315 -0.306056 5.66909 
367 1 -0.896867 -1.81806 -5.39879 
788 1 -0.132564 -1.31479 -5.8039 
768 1 0.513561 -0.737426 5.51428 
674 1 0.316386 -1.35889 -5.10539 
404 1 1.26542 -1.09453 -4.83972 
1401 2 2.58183 -1.29748 5.90335 
1676 2 3.47743 -1.08748 -5.76517 
1935 2 1.39216 -1.72406 -5.89966 
1190 2 3.73621 -1.61768 -4.14129 
1257 2 4.20331 -1.18251 -5.04018 
33 1 5.30093 -1.67786 -5.60235 
403 1 5.75293 -1.51484 -4.91125 
1110 2 -4.13391 0.0435917 -4.22998 
2036 2 -5.20073 0.0968972 -5.19643 
117 1 -3.71358 -1.03604 -4.01026 
1111 2 -4.05377 0.376311 -5.06354 
833 1 -3.38883 -0.552946 -4.63857 
505 1 -2.4256 -0.114009 -4.6952 
212 1 -2.87036 -0.0774048 -5.28645 
769 1 -2.65045 0.343982 -5.91416 
374 1 -2.03643 0.438165 -5.28649 
244 1 -0.299667 0.934697 -5.33655 
451 1 -0.430693 0.371293 -4.46085 
1809 2 -0.793989 -0.420173 -5.43085 
1631 2 0.369149 0.158274 -5.79056 
1570 2 -0.033225 -0.202258 -5.14046 
1785 2 0.862809 0.0152712 -5.11214 
916 1 0.713245 -0.955612 -5.60392 
758 1 2.30736 -0.196314 5.74684 
334 1 1.5015 -0.814871 -5.69025 
2041 2 1.39148 -0.188425 -4.49044 
31 1 1.38897 -0.417153 5.35647 
105 1 3.15329 -0.293507 -5.31966 
908 1 3.97857 0.205256 -5.74854 
1725 2 -5.78015 -0.376231 -4.72372 
469 1 5.67068 1.04661 -5.56601 
230 1 -4.73677 1.3731 -4.8546 
1343 2 -3.38534 0.851252 -5.33441 
109 1 -4.35651 1.91508 -5.57387 
1736 2 -3.94435 0.996126 5.85124 
689 1 -3.8391 1.72282 -4.86226 
1346 2 -4.65158 0.61906 -5.77656 
1498 2 -2.40912 1.38586 -5.29084 
752 1 -3.12384 2.04626 -5.1473 
1256 2 -1.7 1.23936 -4.58374 
2001 2 -1.05693 1.1329 -3.91986 
1058 2 -1.02318 1.51639 -4.82553 
827 1 0.3734 0.951992 -4.7819 
380 1 0.896535 1.29968 -5.3114 
401 1 1.15187 0.705059 -4.10189 
1180 2 1.15376 0.387461 5.90501 
1502 2 2.7672 0.67132 -5.08132 
1314 2 1.70327 0.467054 -5.34883 
869 1 3.43276 2.03982 -5.07824 
1210 2 3.48794 1.01447 -5.21905 
1470 2 4.87659 1.59589 -4.88927 
1572 2 4.15924 1.15788 -4.708 
1953 2 4.41305 1.65079 -5.64567 
195 1 4.22797 0.184876 -5.00356 
866 1 -5.55372 0.987804 -4.8138 
1204 2 5.57051 1.9362 -4.74384 
1877 2 -5.7354 2.33192 -5.50141 
1861 2 -4.22001 2.70256 -4.7132 
190 1 -3.55495 2.26336 -5.83127 
1800 2 -3.92714 3.24914 -5.40293 
1412 2 -4.93435 2.71742 -5.34864 
493 1 -2.59279 2.56467 -5.94853 
815 1 -2.16728 2.48183 -5.13619 
546 1 -1.97985 3.02101 5.56362 
950 1 -1.43485 2.79647 -5.70695 
727 1 -1.02456 3.42072 5.6306 
1999 2 -0.319069 1.75447 -4.43008 
1945 2 -0.627626 2.02698 -5.75109 
1506 2 0.108923 2.09775 -5.13278 
1364 2 0.778679 2.84368 5.75158 
1979 2 0.947682 2.40253 -5.33557 
1628 2 2.44072 3.44848 5.85331 
1085 2 1.75891 2.76856 -5.15134 
570 1 2.21919 1.74514 -5.25138 
188 1 4.83925 2.73892 -4.86816 
96 1 3.9233 2.51784 -5.57271 
762 1 4.67387 2.95194 -5.73247 
1403 2 -5.3682 2.24613 -4.77503 
7 1 5.70088 3.00558 -4.57381 
396 1 5.83844 3.39781 -5.23268 
926 1 -5.07383 4.03682 -5.78247 
1365 2 -4.91151 4.85282 -4.55057 
369 1 -4.64496 4.00264 -4.99848 
755 1 -5.73956 3.74097 5.62461 
923 1 -3.10389 4.43896 -5.11904 
69 1 -3.82164 4.13428 -4.93133 
250 1 -4.07629 4.29488 -5.83443 
1482 2 -3.21742 3.34682 -5.65113 
1772 2 -2.33127 3.86678 -5.83849 
221 1 -2.31806 4.58455 -4.64312 
989 1 -3.36231 4.71731 5.8228 
1476 2 -1.21518 3.68658 -4.72305 
1378 2 -0.52414 3.96655 -4.66812 
1934 2 -1.38635 4.17813 -5.67432 
1692 2 0.154946 4.8273 -5.63917 
1336 2 -0.540903 4.33051 -5.52987 
852 1 -0.340999 3.3108 -5.5196 
1756 2 1.15304 4.78598 -5.1677 
76 1 0.653311 3.6788 -5.49259 
56 1 1.27644 3.5085 -4.74036 
501 1 1.43079 3.95147 -5.58741 
1342 2 3.44928 3.73936 5.9366 
653 1 2.07224 3.8608 -4.98669 
1002 1 2.49833 4.30978 -5.55249 
1214 2 3.38581 3.25677 -5.08666 
1274 2 4.21787 3.79435 -5.29545 
1146 2 4.09227 4.2647 5.67148 
1088 2 -5.83883 4.30268 -4.73836 
1779 2 5.10615 4.15672 -4.9144 
342 1 -5.82454 -5.86132 5.72898 
1207 2 -5.35304 4.87369 -5.3174 
1527 2 -3.92366 5.00322 -4.28228 
1989 2 -3.3362 5.57681 -4.68461 
1311 2 -4.29047 5.28918 -5.00544 
1526 2 -2.21724 5.68031 -4.39468 
146 1 -2.55564 4.91239 -5.69213 
1301 2 -2.53745 5.80299 -5.3094 
797 1 -1.7228 5.08409 -5.25275 
836 1 -1.0123 5.19899 -4.87557 
350 1 0.0624023 5.79136 -5.59476 
340 1 -0.0521784 5.4998 -4.71637 
1372 2 0.661626 5.14316 5.54968 
1607 2 1.85302 4.75407 -4.33377 
1033 2 1.02691 5.59993 4.97478 
1704 2 3.08564 -5.76367 5.71496 
777 1 1.88173 4.41677 5.61092 
1955 2 1.35443 5.17729 -5.84318 
1093 2 2.78762 5.40117 -5.224 
1847 2 3.36754 5.71708 -4.58156 
437 1 3.81085 4.67321 -4.71289 
473 1 3.41132 4.79936 -5.67693 
432 1 2.94345 4.23896 -4.86591 
255 1 4.26576 5.23958 -5.49589 
1203 2 -5.55554 -5.3234 -3.56741 
1931 2 -5.00274 -4.83836 -4.06754 
274 1 -2.38769 -5.17838 -3.90878 
805 1 -4.19098 -5.78761 -3.8983 
1534 2 -4.3704 -4.72289 -3.6257 
2000 2 -3.42332 -4.4612 -3.89959 
467 1 -1.60395 -4.71272 -4.54674 
147 1 -2.95074 -5.87276 -3.23873 
497 1 -1.45241 -5.04458 -3.71496 
1353 2 -1.43455 5.6796 -3.79847 
1818 2 -0.523463 5.7668 -3.41323 
1503 2 -0.863549 -5.7566 -4.26679 
1747 2 0.0326881 -5.66101 -3.93283 
1984 2 2.11689 -4.43501 -4.61628 
1486 2 0.611208 -5.04497 -4.75363 
1563 2 1.26969 -5.0056 -4.09961 
575 1 2.50649 -5.43648 -4.72143 
43 1 2.0607 -5.90979 -3.91593 
1828 2 2.43819 -4.67651 -3.91849 
64 1 2.77662 -5.92666 -3.44539 
931 1 3.12887 -5.26534 -4.23797 
131 1 3.64622 -5.34151 -3.56438 
1714 2 5.32414 -5.5337 -4.59038 
2034 2 5.2451 -5.83274 -3.76312 
339 1 -5.95045 -4.28014 -3.73781 
75 1 -5.18895 -3.91411 -3.81272 
1411 2 -4.13071 -4.41576 -4.55946 
465 1 -4.45527 -3.57165 -4.16476 
441 1 -4.29489 -3.61958 -3.35655 
1425 2 -2.661 -4.28248 -3.47926 
1602 2 -2.18937 -3.98285 -4.06874 
1991 2 -1.92466 -4.47643 -2.85703 
1046 2 -3.32588 -4.65913 -3.06147 
107 1 -0.836567 -4.42673 -4.26003 
1881 2 -1.53175 -4.05137 -3.45196 
227 1 -0.0472755 -4.25246 -4.55269 
416 1 -0.640591 -4.77356 -3.57132 
249 1 0.162757 -4.5605 -3.69206 
20 1 0.711317 -3.94433 -4.50866 
938 1 1.5762 -3.58796 -4.23051 
136 1 2.35399 -3.00288 -4.64747 
2004 2 3.22106 -4.10602 -4.28401 
1019 1 2.18423 -3.57737 -3.75782 
2019 2 4.68541 -3.68247 -3.51266 
1592 2 3.55282 -4.29392 -3.42553 
1319 2 5.61821 -3.22185 -3.98874 
284 1 4.51693 -5.12835 -3.54445 
1937 2 -4.57708 -2.42561 -4.07671 
784 1 -5.65988 -2.04419 -3.01591 
1750 2 5.58583 -3.54142 -3.11156 
2032 2 -3.00454 -1.65487 -4.529 
965 1 -3.86046 -3.09958 -4.64107 
1296 2 -3.69985 -2.11734 -3.98185 
1465 2 -4.12232 -1.78571 -4.7956 
150 1 -2.56493 -2.97086 -3.93937 
151 1 -1.73144 -2.5861 -3.76137 
236 1 -0.755032 -2.30646 -4.04568 
1581 2 -0.492339 -3.36106 -4.30255 
1231 2 0.401234 -3.33739 -3.63825 
1894 2 0.224472 -3.01646 -4.36126 
1947 2 1.08667 -2.73386 -3.90451 
639 1 3.24298 -2.88418 -4.76944 
1363 2 2.37626 -1.71465 -5.23276 
1923 2 1.77177 -2.22093 -4.22874 
485 1 3.60851 -2.83739 -3.86156 
928 1 4.69906 -2.45561 -3.8664 
1001 1 2.92181 -3.07001 -3.94036 
1483 2 -5.55387 -2.79542 -4.26322 
550 1 5.43133 -2.1833 -3.63477 
771 1 -5.10017 -1.23288 -4.46166 
179 1 -5.82167 -1.7826 -4.10285 
205 1 -5.08429 -1.83023 -3.54743 
2035 2 -5.08726 -0.583668 -3.11486 
161 1 -4.53281 -1.17403 -3.70039 
948 1 -3.04484 -1.12436 -3.25405 
1664 2 -3.03477 -2.15117 -3.54292 
717 1 -2.15776 -0.641098 -3.52869 
1097 2 -2.37279 -1.72819 -3.83891 
1870 2 -1.68645 -1.35366 -4.18942 
1573 2 -1.43763 -1.85468 -3.06366 
599 1 0.124903 -2.09512 -3.85741 
657 1 -0.283659 -1.78595 -4.60523 
1223 2 -0.952028 -1.28826 -3.65919 
830 1 0.732574 -1.5891 -4.34311 
421 1 2.00687 -0.972274 -4.49884 
691 1 1.85563 -1.50225 -3.0338 
427 1 2.46254 -1.08552 -3.5806 
1946 2 3.27125 -1.54614 -4.99733 
1259 2 2.61336 -1.9259 -4.40141 
1083 2 4.55305 -1.2437 -4.22096 
1738 2 3.05973 -1.98606 -3.44622 
1128 2 4.24967 -1.60817 -3.3641 
42 1 3.21188 -0.80056 -3.94724 
2014 2 5.36737 -0.72706 -4.43324 
1775 2 5.4015 -1.11777 -3.55364 
1634 2 -5.71297 -0.736043 -3.8576 
1030 2 -4.84984 -0.184032 -4.06593 
1792 2 -3.44458 0.03935 -3.65709 
278 1 -5.59699 0.474889 -3.89456 
2048 2 -3.34005 0.503446 -4.4315 
1184 2 -3.09076 -0.0946951 -2.84091 
214 1 -2.68627 -0.582737 -4.08172 
1754 2 -2.72157 0.539101 -3.76258 
1104 2 -2.32876 0.249939 -2.82957 
1310 2 -3.00897 -0.330391 -1.9445 
848 1 -1.68074 -0.307577 -4.09309 
254 1 -1.52936 0.17839 -4.66758 
789 1 -1.34623 -0.317202 -3.22166 
704 1 -0.849588 -0.108596 -4.00294 
1500 2 -0.322358 -0.848423 -4.24037 
1673 2 0.226808 -0.937376 -3.55752 
594 1 -0.297131 0.052727 -3.30495 
1644 2 0.509383 -0.473886 -4.39891 
1057 2 1.0538 -0.433274 -3.60216 
872 1 2.26833 -0.55523 -5.252 
1963 2 1.9059 -0.107182 -3.77001 
2008 2 2.27115 0.265344 -4.56065 
900 1 3.80166 -0.281992 -4.58632 
125 1 2.79775 -0.730297 -4.5964 
715 1 4.92051 0.201517 -4.28217 
32 1 5.48272 0.0914581 -3.46607 
697 1 -3.98795 1.30736 -4.11414 
397 1 -4.74242 0.912377 -4.03103 
912 1 5.61153 0.516772 -4.47697 
824 1 -3.08828 1.74328 -4.04232 
903 1 -2.56564 1.61766 -3.31951 
1876 2 -2.70289 1.04732 -4.57427 
1015 1 -2.2307 2.07744 -4.19019 
1830 2 -1.94504 0.800353 -3.92082 
1550 2 -0.790829 0.812989 -3.16824 
1884 2 0.746196 1.61281 -3.66504 
1962 2 -0.182899 1.42382 -3.64813 
80 1 0.308053 0.503973 -4.04896 
1021 1 0.579144 0.490676 -3.31493 
551 1 1.58846 1.26371 -4.79098 
382 1 2.54047 1.5495 -4.54267 
895 1 2.0362 1.03765 -3.89617 
447 1 3.51661 1.89727 -4.1921 
760 1 3.79916 1.75306 -3.30142 
1172 2 4.23681 1.01912 -3.88234 
1696 2 5.03806 1.32437 -4.12731 
1777 2 5.78969 1.54636 -4.04899 
1986 2 5.0109 1.03322 -3.2312 
676 1 -5.27497 3.4116 -4.80878 
1728 2 -4.00233 2.14318 -3.52114 
1068 2 -4.63931 2.29839 -4.20445 
882 1 -5.2658 3.10627 -3.75518 
1938 2 -2.75451 3.13616 -4.93141 
1512 2 -3.52546 2.98141 -4.42511 
1092 2 -3.2221 2.69057 -3.56822 
322 1 -3.33722 3.38771 -2.67185 
1839 2 -3.76104 2.14223 -2.74997 
1959 2 -1.93315 3.52787 -5.12825 
1794 2 -2.74113 3.01622 -3.99307 
1175 2 -1.85958 3.40992 -4.24175 
982 1 -0.968863 2.33293 -3.732 
709 1 -1.54601 2.45475 -4.49176 
593 1 -0.0200952 2.5597 -3.55174 
1298 2 0.491082 2.02728 -4.44238 
885 1 0.246498 3.22169 -4.8947 
491 1 -0.867617 2.76488 -5.06422 
552 1 -0.413584 2.86228 -4.34711 
1054 2 1.29603 2.27478 -4.45372 
896 1 2.06128 3.2473 -2.94452 
1967 2 2.06504 2.47566 -4.28655 
1653 2 2.57787 2.98467 -5.16679 
1461 2 2.84907 2.78388 -4.4803 
574 1 4.16813 2.34786 -4.62007 
1011 1 4.35061 2.25184 -3.71036 
2020 2 3.69714 3.17071 -4.31649 
631 1 5.79366 2.77127 -3.73617 
726 1 5.01113 2.56441 -3.96367 
298 1 -4.69131 3.47012 -4.17403 
1278 2 -4.65118 4.60945 -3.78849 
45 1 -3.87547 3.88609 -4.15088 
1417 2 -3.63952 4.78508 -3.55582 
323 1 -2.9518 4.02791 -4.38985 
751 1 -2.26269 4.13245 -3.62627 
460 1 -3.05725 3.86378 -3.4437 
772 1 -1.81915 4.11147 -2.85374 
1142 2 -0.79614 3.6661 -3.88197 
1247 2 -1.3653 3.28086 -3.30862 
1625 2 0.117959 3.91704 -4.03432 
1593 2 0.302605 4.45545 -4.84386 
1668 2 -0.303058 3.44852 -2.9877 
1071 2 0.413787 3.79259 -3.24891 
394 1 1.63692 3.40887 -3.84725 
448 1 0.589437 3.06525 -4.0204 
262 1 2.30028 3.66422 -3.99968 
775 1 2.897 3.61955 -3.2173 
143 1 3.23658 4.03026 -4.06074 
1562 2 4.54795 3.66424 -4.37872 
2039 2 4.9253 3.49698 -3.59095 
370 1 4.0885 4.45127 -3.95761 
1977 2 -5.36558 4.10114 -3.79077 
1072 2 -5.16112 4.01031 -3.00959 
1349 2 5.62539 3.90048 -4.06979 
412 1 -5.47212 5.64282 -4.46685 
166 1 -5.76474 5.8541 -5.31175 
825 1 -4.87449 5.59427 -3.51398 
1138 2 -2.95146 5.08986 -4.06119 
1008 1 -3.73371 5.8554 -3.15317 
1510 2 -2.12045 5.28594 -3.57668 
1127 2 -2.778 4.89756 -3.05359 
276 1 -1.05997 4.51409 -3.43787 
1038 2 -1.52706 5.18606 -2.9943 
123 1 -1.5095 4.61638 -4.31734 
41 1 -0.545851 4.95389 -4.13865 
638 1 0.430462 5.23399 -3.95216 
612 1 0.819218 5.11501 -3.13879 
2040 2 1.05936 4.3744 -4.24846 
959 1 1.68065 -5.76377 -4.76634 
165 1 1.15372 5.54472 -4.2055 
1145 2 1.97111 5.2606 -5.24737 
1042 2 2.10011 4.58538 -3.35233 
1764 2 2.71256 5.10234 -4.25415 
1875 2 3.66432 5.30663 -3.89871 
1846 2 4.44806 5.58603 -3.41499 
835 1 4.70055 5.03147 -4.71242 
699 1 5.53385 5.24698 -4.29934 
662 1 -5.75777 5.14309 -3.75 
181 1 4.93735 4.74895 -3.88613 
1612 2 -4.89106 -5.29838 -2.96317 
1192 2 5.78037 -5.98331 -3.11003 
1126 2 -4.44379 -5.55781 -2.28809 
273 1 -5.55442 -4.54377 -2.88043 
2016 2 -5.60808 -5.91631 -2.41957 
1548 2 -3.93911 -5.09563 -2.8476 
119 1 -3.3925 5.63213 -2.20305 
1047 2 -3.51089 -5.26434 -1.97589 
974 1 -1.66859 -5.7773 -2.29385 
260 1 -1.07344 -5.29035 -2.96526 
229 1 -1.03726 -5.4448 -2.16909 
1014 1 -1.93116 -5.53807 -3.03711 
1928 2 0.170186 5.92133 -2.99469 
1543 2 0.662354 -5.72074 -2.20532 
295 1 -0.349106 -5.37122 -1.72603 
305 1 -0.217185 -4.91495 -2.72178 
1344 2 0.798094 -5.39591 -3.54226 
1957 2 1.32729 -5.4057 -2.8256 
459 1 0.536816 -4.81153 -1.92417 
2017 2 2.88258 -4.74136 -3.01182 
1749 2 2.13609 -5.06442 -2.81287 
1915 2 1.77879 -4.89347 -3.50527 
667 1 3.18367 5.86627 -2.72262 
847 1 3.88832 5.87794 -2.02652 
955 1 5.00443 -5.43067 -2.38522 
19 1 4.21644 -5.42305 -2.83039 
798 1 5.79139 -5.0851 -2.17353 
251 1 -4.83231 -4.08372 -2.8428 
878 1 5.36557 -4.81322 -3.11698 
269 1 -4.18641 -4.31213 -2.15994 
71 1 -3.71531 -3.68895 -2.69001 
634 1 -3.55245 -3.37468 -3.7624 
753 1 -2.95278 -3.36743 -3.02556 
1394 2 -2.66836 -4.86862 -2.40859 
1848 2 -0.636828 -3.65243 -3.46723 
1079 2 -1.58818 -4.56449 -2.04245 
1896 2 -1.03596 -4.14963 -2.62611 
954 1 0.639333 -4.47183 -2.85708 
1942 2 -0.028754 -3.62905 -2.73524 
257 1 1.36504 -4.26627 -2.57627 
569 1 1.11385 -4.08682 -3.50715 
1658 2 0.553929 -3.55933 -2.29946 
981 1 2.68365 -3.73045 -2.94495 
934 1 1.87886 -3.93336 -3.19825 
1657 2 4.06992 -4.41224 -2.83755 
1232 2 3.39285 -4.83748 -2.38041 
1737 2 4.46396 -4.66745 -1.85839 
1871 2 4.85787 -4.117 -2.64457 
1836 2 5.32377 -4.25079 -1.64515 
1655 2 -5.94402 -3.75412 -2.23714 
1851 2 -5.23134 -3.21913 -2.49408 
1817 2 -5.63096 -3.05129 -3.43962 
471 1 5.11788 -2.65252 -2.93401 
140 1 -4.53555 -1.62268 -2.75626 
1545 2 -4.53136 -2.79711 -2.94381 
1442 2 -3.88577 -2.65674 -2.24335 
636 1 -4.64504 -2.13837 -1.52522 
1867 2 -2.27364 -2.18085 -2.62224 
1902 2 -3.8537 -2.5118 -3.27758 
1478 2 -3.17909 -2.43775 -2.61788 
816 1 -1.98301 -3.11283 -3.11329 
677 1 -1.01722 -2.78132 -3.26821 
411 1 -1.31258 -3.20379 -2.5023 
398 1 -2.36615 -3.55055 -2.40557 
1911 2 -2.83654 -2.63219 -1.88413 
313 1 -0.244329 -2.48706 -3.20328 
1457 2 0.983904 -3.20628 -2.8869 
844 1 0.471781 -2.40852 -2.48819 
388 1 -0.394745 -2.71773 -2.20317 
1263 2 1.63656 -2.76772 -3.23073 
1878 2 1.78186 -3.03638 -2.27657 
597 1 1.21407 -1.98928 -2.83599 
1580 2 2.32174 -2.2815 -3.42743 
1645 2 3.7735 -2.12742 -3.10535 
1787 2 2.47959 -2.7049 -2.62244 
352 1 3.7817 -3.37047 -2.26281 
1641 2 3.31938 -2.25003 -2.43487 
914 1 3.38722 -3.34024 -3.01692 
754 1 4.22416 -2.98276 -2.96017 
311 1 4.74705 -3.07808 -2.20855 
1279 2 -4.76275 -0.766073 -2.24253 
1163 2 -4.2038 -0.27812 -3.27848 
344 1 -3.63904 -2.1564 -1.2689 
592 1 -3.86594 -1.42209 -3.23875 
917 1 -4.02363 -1.75134 -1.88612 
1978 2 -4.76169 -1.05351 -1.36354 
37 1 -2.76522 -1.3786 -2.20278 
1908 2 -1.68002 -2.22145 -2.07572 
1537 2 -2.03461 -2.53046 -1.32696 
234 1 -2.06587 -1.23629 -1.73654 
1345 2 -0.417054 -1.43389 -3.13916 
1456 2 -0.94431 -1.76167 -2.44082 
1517 2 -0.0267886 -1.45713 -2.4042 
1804 2 0.768367 -0.977409 -2.73849 
287 1 0.819046 -1.76709 -3.46984 
705 1 1.55292 -1.26083 -3.81979 
2046 2 1.86885 -0.424286 -2.85953 
377 1 1.99032 -1.98296 -1.99419 
640 1 3.01401 -1.12972 -2.86358 
700 1 3.78683 -0.813323 -3.13187 
116 1 3.63084 -1.20149 -2.13817 
198 1 4.54897 -0.766734 -2.30531 
1299 2 4.91071 -1.51164 -2.95213 
1237 2 -5.74042 -0.98359 -2.8407 
1286 2 5.49439 -1.46788 -2.36895 
299 1 -4.85726 0.493901 -3.06542 
654 1 -5.25311 0.0826161 -2.12415 
1350 2 -3.96286 -0.435237 -2.51749 
1826 2 -3.90675 -1.20923 -0.804513 
818 1 -4.06441 0.611883 -2.4542 
1206 2 -3.83904 -0.775453 -1.66125 
1025 2 -2.11722 -0.111379 -2.04337 
499 1 -1.99769 -1.03167 -2.72212 
1834 2 -1.40848 0.324002 -2.17094 
615 1 -1.20913 -0.837166 -2.39996 
886 1 -0.50332 -0.442312 -2.63401 
121 1 0.430895 -0.337504 -1.65441 
517 1 0.330122 -0.0732025 -2.6177 
749 1 1.1305 0.167145 -2.52877 
1832 2 2.47649 -0.424297 -2.2337 
1952 2 2.74007 -0.131316 -3.18253 
1529 2 2.97504 0.225154 -4.02687 
1220 2 4.36434 0.613381 -2.88093 
2027 2 3.37491 0.801998 -4.40312 
241 1 4.24793 -0.305071 -3.84289 
1059 2 3.5956 0.515024 -3.43526 
708 1 -5.76979 0.142085 -2.86182 
297 1 4.7627 -0.302432 -3.22595 
1361 2 -5.36587 1.92373 -3.99894 
1282 2 -4.8303 1.77676 -3.28616 
2030 2 -5.34819 1.32464 -2.29515 
94 1 -3.96096 0.911812 -3.41894 
1803 2 -3.72044 1.59426 -1.77863 
164 1 -3.27985 1.24099 -3.1479 
686 1 -3.13896 0.851323 -2.39238 
613 1 -1.56702 1.23857 -1.97557 
310 1 -2.29672 1.32353 -2.57985 
719 1 -1.73328 1.93629 -3.48203 
1643 2 -1.58736 0.593533 -3.00673 
494 1 -1.42823 1.64563 -2.7194 
1436 2 -0.567808 0.613405 -2.23938 
1683 2 0.0530539 1.23872 -2.83101 
240 1 -0.737895 1.69062 -2.01087 
1187 2 0.194543 0.87546 -1.9746 
90 1 1.45822 0.720196 -3.19103 
1642 2 1.55215 1.97419 -3.60504 
1158 2 2.40541 2.28159 -3.37695 
1050 2 0.854888 1.52528 -2.77384 
842 1 2.45948 1.0509 -3.14172 
894 1 2.90013 1.43528 -3.7692 
1994 2 1.64521 1.8378 -2.64419 
232 1 4.5907 1.89825 -2.88302 
621 1 3.29557 1.16381 -2.66949 
1468 2 5.59809 1.02073 -2.36136 
1320 2 -5.75078 1.39595 -3.19597 
944 1 4.89376 1.7713 -2.03838 
731 1 -4.57839 3.06288 -3.31536 
204 1 -3.89238 3.51353 -3.44383 
351 1 -5.54653 2.16267 -1.65855 
1654 2 -4.38718 1.54786 -2.53819 
568 1 -4.29333 2.89771 -2.49906 
879 1 -5.00312 2.41506 -2.30533 
2021 2 -2.7941 2.40998 -2.83921 
1689 2 -1.82777 2.62297 -2.62056 
1679 2 -3.05288 1.89415 -2.19334 
1415 2 -2.1024 2.89648 -3.39279 
1485 2 -1.0448 3.01437 -2.54189 
301 1 -0.612182 2.08694 -2.86765 
478 1 0.521996 2.51211 -2.84813 
1997 2 1.35112 3.87343 -1.6048 
561 1 1.16969 2.98026 -3.17368 
660 1 0.869344 2.34074 -1.93853 
937 1 1.50786 2.88854 -2.24563 
1769 2 3.28131 2.82246 -3.61308 
828 1 2.14614 3.02983 -2.09351 
1105 2 4.10858 3.12966 -3.43258 
1065 2 3.19061 2.2998 -2.7779 
1686 2 4.19495 2.80224 -2.72849 
171 1 5.32589 2.26005 -3.16317 
702 1 -5.42319 2.58631 -3.06471 
1662 2 4.90916 3.16248 -2.67181 
1670 2 -5.48308 3.4923 -2.58171 
1333 2 5.65284 2.95077 -1.23384 
443 1 -5.59538 4.98697 -2.90293 
1048 2 -4.39405 4.35929 -3.06921 
1971 2 -3.81753 4.1237 -2.07709 
1757 2 -5.34855 3.25927 -1.71852 
381 1 -3.14794 3.09862 -1.95204 
111 1 -2.46513 3.61708 -2.66272 
1419 2 -2.88739 4.34709 -2.13663 
17 1 -0.818569 4.30051 -2.68775 
733 1 -0.346449 4.26432 -1.98277 
871 1 -0.116333 4.79031 -3.3169 
1183 2 0.118949 3.23453 -2.19097 
1406 2 0.81476 3.77694 -2.36036 
1267 2 1.20306 4.19633 -3.33764 
1869 2 1.5955 4.21815 -2.4965 
256 1 2.94243 3.18489 -2.44146 
1499 2 2.34962 4.36158 -2.59311 
1854 2 3.16521 4.71924 -2.50688 
582 1 3.14556 3.32778 -1.523 
34 1 4.46087 4.24083 -3.19291 
906 1 3.61677 4.05673 -3.04622 
641 1 3.63632 3.65162 -2.3066 
1786 2 5.71651 3.6268 -3.12363 
918 1 -5.72284 4.41054 -2.10198 
742 1 5.24677 4.28997 -2.25765 
1554 2 5.6782 3.208 -2.26002 
961 1 -4.93798 4.98665 -2.3399 
453 1 -4.44346 5.44478 -2.89937 
1413 2 -3.62805 4.59144 -2.78955 
579 1 -4.19195 5.15533 -1.89496 
506 1 -4.00648 4.79032 -1.21827 
589 1 -2.57356 -5.93391 -2.44974 
1575 2 -2.25955 4.91801 -2.38205 
1191 2 -0.867574 5.41446 -2.63754 
1339 2 -1.59188 4.91299 -1.96225 
516 1 0.302172 4.62805 -2.50621 
1136 2 -0.0811395 5.57957 -2.10691 
361 1 1.17405 5.17106 -2.46372 
736 1 1.72615 5.50532 -3.34232 
343 1 1.87775 5.20506 -2.073 
1926 2 3.008 4.94427 -3.42265 
182 1 2.82319 5.49712 -1.8834 
487 1 2.28574 5.50567 -2.7051 
422 1 2.34484 5.20676 -1.24622 
1318 2 3.87758 5.13482 -3.00349 
1405 2 3.7355 4.82658 -1.88938 
1489 2 4.92572 5.00444 -1.38953 
1100 2 4.45454 4.96368 -2.28458 
946 1 5.42154 4.62111 -3.1019 
1699 2 5.02714 5.50245 -2.88242 
1362 2 5.38142 5.32966 -2.05386 
504 1 -5.07389 -4.7021 -2.01972 
524 1 -4.59006 -4.89477 -1.22838 
864 1 -4.90249 -5.30868 -0.680782 
724 1 -5.83708 -5.65296 -0.941718 
1272 2 -4.03463 -5.71569 -1.45247 
1285 2 -2.91624 -5.33061 -1.2137 
329 1 -3.03058 -4.50233 -0.658846 
1312 2 -3.55718 -5.90432 -0.771464 
1454 2 -2.19783 -5.06101 -1.7083 
1040 2 -2.43085 -5.49356 -0.505343 
326 1 -1.65075 5.77164 -1.35983 
1477 2 -1.8221 -5.04539 -1.01789 
672 1 -0.856644 -5.84446 -1.34838 
317 1 0.242943 -5.42616 -1.05824 
1611 2 1.14982 -5.91024 -1.28965 
455 1 1.01916 -4.94495 -1.06269 
1530 2 2.45109 -5.31867 -2.05243 
1859 2 1.63203 -5.65516 -1.98072 
1880 2 2.32407 -5.62957 -1.03676 
1765 2 3.77642 -5.05452 -1.60932 
1487 2 4.37136 -4.99117 -0.970677 
1129 2 5.15607 -4.77128 -0.81708 
802 1 -5.59516 -5.14105 -1.56381 
153 1 5.40337 -5.61036 -1.52407 
2010 2 -5.32738 -3.76066 -1.61708 
1948 2 -5.90002 -4.238 -1.04679 
1449 2 -4.77951 -3.94717 -1.00928 
21 1 -3.47818 -4.41845 -1.39344 
1400 2 -4.12836 -3.92349 -0.291507 
890 1 -3.01264 -3.98212 -2.00601 
875 1 -1.78743 -3.55641 -1.81254 
366 1 -2.43917 -4.09896 -1.1868 
1783 2 -1.12571 -4.68059 -1.26811 
526 1 -1.39335 -3.70133 -1.01339 
1613 2 -0.6466 -4.26411 -1.7943 
1753 2 -0.724684 -4.70811 -0.40428 
1748 2 0.0737589 -3.95395 -1.76357 
1535 2 0.40789 -3.99537 -0.988258 
1812 2 1.13678 -3.59984 -1.69392 
661 1 2.27581 -4.09078 -2.33855 
245 1 2.531 -4.19769 -1.61102 
286 1 1.51628 -4.54375 -1.788 
1798 2 2.05757 -3.6541 -0.518795 
100 1 3.13354 -3.85446 -2.11207 
328 1 3.5182 -4.01685 -1.35956 
321 1 4.31961 -3.71326 -1.54235 
522 1 4.53418 -3.8726 -0.680143 
1844 2 5.79449 -4.67364 -0.322745 
602 1 5.12922 -3.24643 -1.35565 
213 1 5.43383 -3.57692 -0.40274 
532 1 -5.13244 -2.08279 -2.36429 
58 1 -5.94916 -2.97579 -0.921536 
2007 2 -4.57562 -3.20858 -1.90987 
734 1 -4.9157 -2.89431 -0.682017 
767 1 -5.39743 -2.59653 -1.4727 
99 1 -4.26132 -2.42048 -0.878479 
1993 2 -3.44442 -3.13071 -1.66519 
1077 2 -2.74373 -3.10724 -0.987979 
1069 2 -3.45757 -3.55221 -0.700658 
986 1 -0.892932 -3.30795 -1.68966 
1574 2 -1.17967 -2.28576 -1.21144 
1289 2 -0.267879 -2.0637 -0.756403 
11 1 -0.231837 -3.25875 -1.09349 
347 1 0.942506 -2.76512 -1.06902 
998 1 0.238157 -2.72526 -1.58314 
566 1 1.79188 -2.38568 -1.07022 
106 1 1.15243 -2.37931 -1.73158 
1973 2 1.97922 -3.29723 -1.37595 
1066 2 2.75264 -3.21844 -0.956869 
626 1 2.61925 -2.06039 -1.28932 
1708 2 2.90563 -2.88704 -1.75229 
1167 2 3.92375 -2.40656 -1.78769 
1148 2 4.30168 -1.91738 -2.43541 
968 1 5.76612 -2.57767 -2.07029 
1996 2 4.49908 -2.48284 -0.982724 
1492 2 4.83321 -2.05246 -1.81773 
1940 2 -5.49479 -1.16969 -2.01856 
1393 2 -5.54526 -1.58996 -1.0425 
1352 2 -4.76875 -1.54743 -0.4584 
548 1 -3.60074 -1.54022 -2.479 
963 1 -2.22345 -1.6344 -0.803669 
682 1 -2.9111 -1.78208 -1.33758 
1337 2 -3.1662 -0.769775 -0.892738 
419 1 -0.401652 -0.910186 -1.02031 
630 1 -1.19262 -1.06248 -1.49535 
1781 2 -0.55264 -1.90675 -1.65381 
1635 2 0.252132 -1.69983 -1.42847 
1568 2 0.895662 -1.28285 -1.93451 
1682 2 0.998475 -1.57354 -0.911081 
1659 2 1.67223 -0.897382 -1.8361 
867 1 2.80912 -1.46369 -2.18731 
1819 2 2.54015 -0.655187 -1.43352 
1266 2 1.86126 -1.22641 -1.11187 
846 1 3.38478 -1.6633 -1.25356 
518 1 4.26808 -1.18927 -1.4103 
1858 2 3.37579 -0.271605 -1.77316 
279 1 4.96825 -0.712593 -1.44139 
737 1 5.77904 -0.235731 -1.78918 
983 1 5.85376 -0.540928 -1.03058 
489 1 -4.44913 0.180193 -1.93188 
692 1 -5.06632 -0.0828889 -1.23297 
472 1 -3.38357 0.612933 -1.69194 
259 1 -2.9668 0.472903 -1.04443 
969 1 -4.13949 0.123625 -1.24737 
1972 2 -2.446 -0.412073 -1.1958 
921 1 -2.4276 0.852154 -1.70451 
1893 2 -2.35551 -0.799924 -0.270742 
1432 2 -1.59536 -0.121257 -1.40848 
1589 2 -0.867843 0.22933 -1.28808 
1761 2 -1.62284 -0.395057 -0.555461 
776 1 -0.451527 -0.639945 -1.81313 
1067 2 0.212969 0.152009 -0.397917 
502 1 0.481016 -0.710768 -0.885319 
625 1 1.22004 -0.0933253 -1.61277 
601 1 1.98464 0.329775 -1.6331 
408 1 1.8727 0.69031 -2.5128 
50 1 2.82343 0.389318 -1.12485 
1505 2 3.58849 0.0159362 -2.66905 
1897 2 4.47266 0.230729 -1.21081 
1508 2 4.16165 0.169962 -2.09803 
958 1 5.42486 -0.375925 -2.52071 
1672 2 -5.97594 0.417117 -0.620392 
1045 2 4.95004 0.42351 -2.09251 
2038 2 -5.07908 0.845334 -0.851065 
1003 1 -4.95636 1.89979 -0.923954 
1622 2 -4.09541 1.18687 -1.06622 
1229 2 -4.69431 1.26411 -1.73695 
1720 2 -3.39042 1.37861 -0.794643 
2047 2 -2.72698 1.77122 -1.30467 
115 1 -1.43795 1.13376 -1.05982 
1727 2 -2.32498 2.32193 -1.99176 
585 1 -0.918678 1.00217 -0.293884 
2043 2 -0.0283694 0.439083 -1.22083 
1386 2 0.876322 0.911919 -1.20655 
134 1 -0.520878 1.2895 -1.11461 
823 1 0.197314 1.85018 -1.51299 
1373 2 1.63013 1.03318 -0.919789 
1681 2 1.01541 1.10526 -1.97278 
1825 2 2.48178 1.98333 -2.49013 
1297 2 1.79622 1.46758 -1.74939 
1134 2 2.54911 1.69542 -1.62121 
243 1 2.68456 0.678116 -2.11461 
194 1 4.04079 1.36064 -2.17784 
783 1 3.31091 0.848675 -1.65884 
1564 2 -5.72413 0.815605 -1.49356 
761 1 5.37596 1.71903 -1.45702 
464 1 4.43122 1.18881 -1.47485 
811 1 5.79288 2.16125 -2.43155 
446 1 -4.63945 2.38804 -1.49175 
1811 2 -5.03794 3.13703 -0.776887 
1669 2 -4.69717 3.06604 -0.0878797 
1000 1 -4.19 2.27992 -0.800624 
966 1 -3.85899 2.67837 -1.76174 
294 1 -2.65321 2.98669 -1.25139 
739 1 -3.33632 2.52909 -1.00215 
16 1 -2.0282 2.962 -0.502572 
1304 2 -1.30421 2.53223 -1.70782 
1981 2 -1.90087 2.03895 -1.33132 
1983 2 -0.58313 2.94567 -1.8657 
1268 2 0.79818 3.19716 -1.43612 
208 1 -0.0744232 2.15562 -2.27495 
747 1 1.75346 2.41236 -1.59153 
1974 2 0.663809 2.83966 -0.532678 
44 1 1.04191 1.9622 -1.0356 
945 1 2.68763 2.72558 -1.48832 
510 1 3.54755 2.99937 -0.737174 
1522 2 4.03166 2.5946 -1.9595 
1838 2 3.33419 2.00245 -1.79542 
1866 2 3.97328 2.19895 -1.07199 
1636 2 4.74134 2.42739 -0.845755 
1330 2 4.91453 2.81826 -1.78018 
355 1 -4.87144 4.65594 -1.61695 
13 1 -5.25231 4.19913 -0.966349 
1056 2 -4.52445 3.54474 -1.47035 
1335 2 -4.68753 3.78908 -2.26268 
1814 2 -3.81213 3.88255 -1.31603 
132 1 -4.54008 4.53696 -0.756116 
520 1 -2.24378 3.38341 -1.90474 
1287 2 -3.0285 3.9988 -1.22888 
925 1 -1.6031 3.28515 -1.10409 
2033 2 -2.64233 3.73873 -0.326671 
26 1 -1.58235 3.81563 -2.12132 
418 1 -0.893415 3.82112 -1.51865 
224 1 -0.377074 3.78493 -0.816303 
627 1 0.176407 4.14103 -1.31598 
1099 2 2.29032 3.45778 -0.0935463 
905 1 0.917639 4.21228 -0.597249 
1913 2 1.49065 3.3602 -0.829105 
1428 2 2.08313 3.98185 -1.76553 
1161 2 2.82079 4.4062 -1.77884 
1610 2 2.23385 3.62608 -0.946372 
1234 2 3.71853 4.45684 -1.19257 
1178 2 2.95308 4.0915 -0.876228 
690 1 4.16678 3.64457 -1.5588 
650 1 4.42374 4.04491 -2.36201 
993 1 5.95379 4.03293 -1.36234 
258 1 4.97242 3.88371 -1.48371 
1604 2 -5.09571 5.79685 -1.70453 
1633 2 -5.27775 5.29633 -0.81584 